
             +---------------------------------------------------+
             |                                                   |
             |                   WANNIER90                       |
             |                                                   |
             +---------------------------------------------------+
             |                                                   |
             |        Welcome to the Maximally-Localized         |
             |        Generalized Wannier Functions code         |
             |            http://www.wannier.org                 |
             |                                                   |
             |                                                   |
             |  Wannier90 Developer Group:                       |
             |    Giovanni Pizzi    (EPFL)                       |
             |    Valerio Vitale    (Cambridge)                  |
             |    David Vanderbilt  (Rutgers University)         |
             |    Nicola Marzari    (EPFL)                       |
             |    Ivo Souza         (Universidad del Pais Vasco) |
             |    Arash A. Mostofi  (Imperial College London)    |
             |    Jonathan R. Yates (University of Oxford)       |
             |                                                   |
             |  For the full list of Wannier90 3.x authors,      |
             |  please check the code documentation and the      |
             |  README on the GitHub page of the code            |
             |                                                   |
             |                                                   |
             |  Please cite                                      |
             |                                                   |
             |  [ref] "Wannier90 as a community code:            |
             |        new features and applications",            |
             |        G. Pizzi et al., J. Phys. Cond. Matt. 32,  |
             |        165902 (2020).                             |
             |        http://doi.org/10.1088/1361-648X/ab51ff    |
             |                                                   |
             |  in any publications arising from the use of      |
             |  this code. For the method please cite            |
             |                                                   |
             |  [ref] "Maximally Localized Generalised Wannier   |
             |         Functions for Composite Energy Bands"     |
             |         N. Marzari and D. Vanderbilt              |
             |         Phys. Rev. B 56 12847 (1997)              |
             |                                                   |
             |  [ref] "Maximally Localized Wannier Functions     |
             |         for Entangled Energy Bands"               |
             |         I. Souza, N. Marzari and D. Vanderbilt    |
             |         Phys. Rev. B 65 035109 (2001)             |
             |                                                   |
             |                                                   |
             | Copyright (c) 1996-2020                           |
             |        The Wannier90 Developer Group and          |
             |        individual contributors                    |
             |                                                   |
             |      Release: 3.1.0        5th March    2020      |
             |                                                   |
             | This program is free software; you can            |
             | redistribute it and/or modify it under the terms  |
             | of the GNU General Public License as published by |
             | the Free Software Foundation; either version 2 of |
             | the License, or (at your option) any later version|
             |                                                   |
             | This program is distributed in the hope that it   |
             | will be useful, but WITHOUT ANY WARRANTY; without |
             | even the implied warranty of MERCHANTABILITY or   |
             | FITNESS FOR A PARTICULAR PURPOSE. See the GNU     |
             | General Public License for more details.          |
             |                                                   |
             | You should have received a copy of the GNU General|
             | Public License along with this program; if not,   |
             | write to the Free Software Foundation, Inc.,      |
             | 675 Mass Ave, Cambridge, MA 02139, USA.           |
             |                                                   |
             +---------------------------------------------------+
             |    Execution started on 11Jul2023 at 10:05:07     |
             +---------------------------------------------------+
 
 ******************************************************************************
 * -> Using CODATA 2006 constant values                                       *
 *    (http://physics.nist.gov/cuu/Constants/index.html)                      *
 * -> Using Bohr value from CODATA                                            *
 ******************************************************************************
 

 Running in parallel on  20 CPUs


                                    ------
                                    SYSTEM
                                    ------

                              Lattice Vectors (Ang)
                    a_1     4.260845   0.000000   0.000000
                    a_2    -2.130422   3.690000   0.000000
                    a_3     0.000000   0.000000  20.000000

                   Unit Cell Volume:     314.45036  (Ang^3)

                        Reciprocal-Space Vectors (Ang^-1)
                    b_1     1.474634   0.851380  -0.000000
                    b_2     0.000000   1.702760   0.000000
                    b_3     0.000000  -0.000000   0.314159
  
 *----------------------------------------------------------------------------*
 |   Site       Fractional Coordinate          Cartesian Coordinate (Ang)     |
 +----------------------------------------------------------------------------+
 | Te   1   0.33333   0.66667   0.24111   |   -0.00000   2.46000   4.82217    |
 | Ge   1   0.00000   0.00000   0.16823   |    0.00000   0.00000   3.36458    |
 | C    1   0.00000   0.00000   0.00000   |    0.00000   0.00000   0.00000    |
 | C    2   0.66667   0.66667   0.00000   |    1.42028   2.46000   0.00000    |
 | C    3   0.66667   0.33333   0.00000   |    2.13042   1.23000   0.00000    |
 | C    4   0.33333   0.66667   0.00000   |   -0.00000   2.46000   0.00000    |
 | C    5   0.33333   0.00000   0.00000   |    1.42028   0.00000   0.00000    |
 | C    6   0.00000   0.33333   0.00000   |   -0.71014   1.23000   0.00000    |
 *----------------------------------------------------------------------------*
                                ------------
                                K-POINT GRID
                                ------------
  
             Grid size = 12 x 12 x  1      Total points =  144
  
  
 *---------------------------------- MAIN ------------------------------------*
 |  Number of Wannier Functions               :                46             |
 |  Number of Objective Wannier Functions     :                46             |
 |  Number of input Bloch states              :                80             |
 |  Output verbosity (1=low, 5=high)          :                 1             |
 |  Timing Level (1=low, 5=high)              :                 1             |
 |  Optimisation (0=memory, 3=speed)          :                 3             |
 |  Length Unit                               :               Ang             |
 |  Post-processing setup (write *.nnkp)      :                 F             |
 |  Using Gamma-only branch of algorithms     :                 F             |
 *----------------------------------------------------------------------------*
 *------------------------------- WANNIERISE ---------------------------------*
 |  Total number of iterations                :              5000             |
 |  Number of CG steps before reset           :                 5             |
 |  Trial step length for line search         :             0.800             |
 |  Convergence tolerence                     :         0.100E-07             |
 |  Convergence window                        :                 5             |
 |  Iterations between writing output         :                 1             |
 |  Iterations between backing up to disk     :               100             |
 |  Write r^2_nm to file                      :                 F             |
 |  Write xyz WF centres to file              :                 T             |
 |  Write on-site energies <0n|H|0n> to file  :                 F             |
 |  Use guiding centre to control phases      :                 F             |
 |  Use phases for initial projections        :                 F             |
 *----------------------------------------------------------------------------*
 *------------------------------- DISENTANGLE --------------------------------*
 |  Using band disentanglement                :                 T             |
 |  Total number of iterations                :              5000             |
 |  Mixing ratio                              :             0.500             |
 |  Convergence tolerence                     :         1.000E-08             |
 |  Convergence window                        :                 3             |
 *----------------------------------------------------------------------------*
 *-------------------------------- PLOTTING ----------------------------------*
 |  Plotting interpolated bandstructure       :                 T             |
 |   Number of K-path sections                :                 3             |
 |   Divisions along first K-path section     :              1000             |
 |   Output format                            :           gnuplot             |
 |   Output mode                              :               s-k             |
 *----------------------------------------------------------------------------*
 |   K-space path sections:                                                   |
 |    From: M       0.500  0.000  0.000     To: G       0.000  0.000  0.000   |
 |    From: G       0.000  0.000  0.000     To: K       0.333  0.333  0.000   |
 |    From: K       0.333  0.333  0.000     To: M       0.500  0.000  0.000   |
 *----------------------------------------------------------------------------*
 |  Plotting Hamiltonian in WF basis          :                 T             |
 *----------------------------------------------------------------------------*
 Time to read parameters        0.018 (sec)

 *---------------------------------- K-MESH ----------------------------------*
 +----------------------------------------------------------------------------+
 |                    Distance to Nearest-Neighbour Shells                    |
 |                    ------------------------------------                    |
 |          Shell             Distance (Ang^-1)          Multiplicity         |
 |          -----             -----------------          ------------         |
 |             1                   0.141897                      6            |
 |             2                   0.245772                      6            |
 |             3                   0.283793                      6            |
 |             4                   0.314159                      2            |
 |             5                   0.344718                     12            |
 |             6                   0.375423                     12            |
 |             7                   0.398873                     12            |
 |             8                   0.423361                     12            |
 |             9                   0.425690                      6            |
 |            10                   0.489529                     24            |
 |            11                   0.491545                      6            |
 |            12                   0.511616                     12            |
 |            13                   0.529063                     12            |
 |            14                   0.567587                      6            |
 |            15                   0.583363                     12            |
 |            16                   0.600372                     24            |
 |            17                   0.618513                     12            |
 |            18                   0.628319                      2            |
 |            19                   0.644142                     12            |
 |            20                   0.648730                     12            |
 |            21                   0.650252                     12            |
 |            22                   0.674676                     12            |
 |            23                   0.689437                     12            |
 |            24                   0.693725                     24            |
 |            25                   0.709483                      6            |
 |            26                   0.722166                     24            |
 |            27                   0.731934                     24            |
 |            28                   0.737317                      6            |
 |            29                   0.750847                     12            |
 |            30                   0.758944                     12            |
 |            31                   0.775927                     12            |
 |            32                   0.790047                     12            |
 |            33                   0.797747                     12            |
 |            34                   0.801456                     12            |
 |            35                   0.810268                     24            |
 |            36                   0.813921                     24            |
 +----------------------------------------------------------------------------+
 | The b-vectors are chosen automatically                                     |
 | SVD found small singular value, Rejecting this shell and trying the next   |
 | The following shells are used:   1,  4                                     |
 +----------------------------------------------------------------------------+
 |                        Shell   # Nearest-Neighbours                        |
 |                        -----   --------------------                        |
 |                          1               6                                 |
 |                          4               2                                 |
 +----------------------------------------------------------------------------+
 | Completeness relation is fully satisfied [Eq. (B1), PRB 56, 12847 (1997)]  |
 +----------------------------------------------------------------------------+
 |                  b_k Vectors (Ang^-1) and Weights (Ang^2)                  |
 |                  ----------------------------------------                  |
 |            No.         b_k(x)      b_k(y)      b_k(z)        w_b           |
 |            ---        --------------------------------     --------        |
 |             1         0.000000    0.141897    0.000000    16.555194        |
 |             2         0.122886    0.070948    0.000000    16.555194        |
 |             3         0.000000   -0.141897    0.000000    16.555194        |
 |             4         0.122886   -0.070948    0.000000    16.555194        |
 |             5        -0.122886   -0.070948    0.000000    16.555194        |
 |             6        -0.122886    0.070948    0.000000    16.555194        |
 |             7         0.000000    0.000000    0.314159     5.066059        |
 |             8         0.000000    0.000000   -0.314159     5.066059        |
 +----------------------------------------------------------------------------+
 |                           b_k Directions (Ang^-1)                          |
 |                           -----------------------                          |
 |            No.           x           y           z                         |
 |            ---        --------------------------------                     |
 |             1         0.000000    0.141897    0.000000                     |
 |             2         0.122886    0.070948    0.000000                     |
 |             3         0.122886   -0.070948    0.000000                     |
 |             4         0.000000    0.000000    0.314159                     |
 +----------------------------------------------------------------------------+
  
 Time to get kmesh              0.054 (sec)
 *============================================================================*
 |                              MEMORY ESTIMATE                               |
 |         Maximum RAM allocated during each phase of the calculation         |
 *============================================================================*
 |                        Disentanglement          170.87 Mb                  |
 |                            Wannierise:          103.44 Mb                  |
 |                          plot_wannier:          103.44 Mb                  |
 *----------------------------------------------------------------------------*
  
 Starting a new Wannier90 calculation ...


 Reading overlaps from graphene.mmn    :  Created on  7Jul2023 at 17:57:54

 Reading projections from graphene.amn :  Created on  7Jul2023 at 17:52:11

 Time to read overlaps          6.784 (sec)

 *------------------------------- DISENTANGLE --------------------------------*
 +----------------------------------------------------------------------------+
 |                              Energy  Windows                               |
 |                              ---------------                               |
 |                   Outer:  -60.00000  to   20.00000  (eV)                   |
 |                   Inner:  -25.00000  to   -1.00000  (eV)                   |
 +----------------------------------------------------------------------------+
   Number of target bands to extract:   46

                   Unitarised projection of Wannier functions                  
                   ------------------------------------------                  
   A_mn = <psi_m|g_n> --> S = A.A^+ --> U = S^-1/2.A
   In dis_project... done
   Using an inner window (linner = T)
   In dis_proj_froz... done

                   Extraction of optimally-connected subspace                  
                   ------------------------------------------                  
 +---------------------------------------------------------------------+<-- DIS
 |  Iter     Omega_I(i-1)      Omega_I(i)      Delta (frac.)    Time   |<-- DIS
 +---------------------------------------------------------------------+<-- DIS
       1      51.08079155      50.39059729       1.370E-02      0.00    <-- DIS
       2      50.48142478      50.29484873       3.710E-03      0.03    <-- DIS
       3      50.36355844      50.23989664       2.461E-03      0.06    <-- DIS
       4      50.28516464      50.20518719       1.593E-03      0.08    <-- DIS
       5      50.23368895      50.18200400       1.030E-03      0.11    <-- DIS
       6      50.19965527      50.16588165       6.732E-04      0.14    <-- DIS
       7      50.17676933      50.15430673       4.479E-04      0.17    <-- DIS
       8      50.16103513      50.14577877       3.042E-04      0.20    <-- DIS
       9      50.14995223      50.13936072       2.112E-04      0.22    <-- DIS
      10      50.14195448      50.13444486       1.498E-04      0.25    <-- DIS
      11      50.13605066      50.13062393       1.083E-04      0.28    <-- DIS
      12      50.13160301      50.12761720       7.951E-05      0.31    <-- DIS
      13      50.12819264      50.12522632       5.918E-05      0.34    <-- DIS
      14      50.12553805      50.12330811       4.449E-05      0.36    <-- DIS
      15      50.12344553      50.12175726       3.368E-05      0.39    <-- DIS
      16      50.12177863      50.12049504       2.561E-05      0.42    <-- DIS
      17      50.12043907      50.11946175       1.950E-05      0.45    <-- DIS
      18      50.11935467      50.11861155       1.483E-05      0.48    <-- DIS
      19      50.11847139      50.11790883       1.122E-05      0.51    <-- DIS
      20      50.11774819      50.11732570       8.430E-06      0.53    <-- DIS
      21      50.11715342      50.11684006       6.253E-06      0.56    <-- DIS
      22      50.11666243      50.11643431       4.552E-06      0.59    <-- DIS
      23      50.11625580      50.11609434       3.222E-06      0.62    <-- DIS
      24      50.11591807      50.11580873       2.182E-06      0.65    <-- DIS
      25      50.11563690      50.11556822       1.370E-06      0.68    <-- DIS
      26      50.11540232      50.11536524       7.398E-07      0.70    <-- DIS
      27      50.11520625      50.11519359       2.525E-07      0.73    <-- DIS
      28      50.11504211      50.11504817      -1.209E-07      0.76    <-- DIS
      29      50.11490452      50.11492474      -4.036E-07      0.79    <-- DIS
      30      50.11478904      50.11481982      -6.142E-07      0.82    <-- DIS
      31      50.11469203      50.11473049      -7.674E-07      0.85    <-- DIS
      32      50.11461047      50.11465433      -8.752E-07      0.87    <-- DIS
      33      50.11454184      50.11458930      -9.469E-07      0.90    <-- DIS
      34      50.11448408      50.11453370      -9.902E-07      0.93    <-- DIS
      35      50.11443543      50.11448610      -1.011E-06      0.96    <-- DIS
      36      50.11439444      50.11444531      -1.015E-06      0.99    <-- DIS
      37      50.11435991      50.11441030      -1.005E-06      1.02    <-- DIS
      38      50.11433082      50.11438022      -9.858E-07      1.04    <-- DIS
      39      50.11430630      50.11435434      -9.586E-07      1.07    <-- DIS
      40      50.11428565      50.11433205      -9.260E-07      1.10    <-- DIS
      41      50.11426825      50.11431284      -8.897E-07      1.13    <-- DIS
      42      50.11425361      50.11429625      -8.509E-07      1.16    <-- DIS
      43      50.11424129      50.11428191      -8.106E-07      1.19    <-- DIS
      44      50.11423092      50.11426950      -7.698E-07      1.21    <-- DIS
      45      50.11422222      50.11425875      -7.290E-07      1.24    <-- DIS
      46      50.11421491      50.11424943      -6.888E-07      1.27    <-- DIS
      47      50.11420878      50.11424133      -6.494E-07      1.30    <-- DIS
      48      50.11420365      50.11423428      -6.113E-07      1.33    <-- DIS
      49      50.11419935      50.11422815      -5.746E-07      1.36    <-- DIS
      50      50.11419577      50.11422280      -5.393E-07      1.39    <-- DIS
      51      50.11419278      50.11421813      -5.057E-07      1.42    <-- DIS
      52      50.11419030      50.11421404      -4.738E-07      1.47    <-- DIS
      53      50.11418824      50.11421046      -4.435E-07      1.50    <-- DIS
      54      50.11418653      50.11420733      -4.149E-07      1.53    <-- DIS
      55      50.11418513      50.11420457      -3.879E-07      1.55    <-- DIS
      56      50.11418398      50.11420214      -3.625E-07      1.58    <-- DIS
      57      50.11418303      50.11420001      -3.387E-07      1.61    <-- DIS
      58      50.11418227      50.11419812      -3.163E-07      1.64    <-- DIS
      59      50.11418165      50.11419645      -2.954E-07      1.67    <-- DIS
      60      50.11418115      50.11419497      -2.759E-07      1.70    <-- DIS
      61      50.11418075      50.11419366      -2.576E-07      1.72    <-- DIS
      62      50.11418044      50.11419249      -2.405E-07      1.75    <-- DIS
      63      50.11418020      50.11419145      -2.246E-07      1.78    <-- DIS
      64      50.11418001      50.11419053      -2.098E-07      1.81    <-- DIS
      65      50.11417988      50.11418970      -1.960E-07      1.84    <-- DIS
      66      50.11417978      50.11418895      -1.831E-07      1.86    <-- DIS
      67      50.11417971      50.11418828      -1.711E-07      1.89    <-- DIS
      68      50.11417966      50.11418768      -1.600E-07      1.92    <-- DIS
      69      50.11417964      50.11418714      -1.496E-07      1.95    <-- DIS
      70      50.11417963      50.11418665      -1.400E-07      1.98    <-- DIS
      71      50.11417964      50.11418620      -1.310E-07      2.01    <-- DIS
      72      50.11417965      50.11418580      -1.227E-07      2.03    <-- DIS
      73      50.11417967      50.11418543      -1.150E-07      2.06    <-- DIS
      74      50.11417969      50.11418510      -1.078E-07      2.09    <-- DIS
      75      50.11417972      50.11418479      -1.011E-07      2.12    <-- DIS
      76      50.11417975      50.11418451      -9.489E-08      2.15    <-- DIS
      77      50.11417978      50.11418425      -8.912E-08      2.18    <-- DIS
      78      50.11417982      50.11418401      -8.375E-08      2.20    <-- DIS
      79      50.11417985      50.11418379      -7.875E-08      2.23    <-- DIS
      80      50.11417988      50.11418359      -7.410E-08      2.26    <-- DIS
      81      50.11417991      50.11418340      -6.978E-08      2.29    <-- DIS
      82      50.11417993      50.11418323      -6.576E-08      2.32    <-- DIS
      83      50.11417996      50.11418307      -6.202E-08      2.34    <-- DIS
      84      50.11417998      50.11418292      -5.853E-08      2.37    <-- DIS
      85      50.11418000      50.11418277      -5.528E-08      2.40    <-- DIS
      86      50.11418002      50.11418264      -5.226E-08      2.43    <-- DIS
      87      50.11418004      50.11418252      -4.944E-08      2.46    <-- DIS
      88      50.11418006      50.11418240      -4.681E-08      2.49    <-- DIS
      89      50.11418007      50.11418229      -4.436E-08      2.51    <-- DIS
      90      50.11418008      50.11418219      -4.207E-08      2.54    <-- DIS
      91      50.11418009      50.11418209      -3.993E-08      2.57    <-- DIS
      92      50.11418010      50.11418200      -3.793E-08      2.60    <-- DIS
      93      50.11418010      50.11418191      -3.607E-08      2.63    <-- DIS
      94      50.11418011      50.11418183      -3.432E-08      2.66    <-- DIS
      95      50.11418011      50.11418175      -3.269E-08      2.68    <-- DIS
      96      50.11418011      50.11418168      -3.116E-08      2.71    <-- DIS
      97      50.11418011      50.11418160      -2.973E-08      2.74    <-- DIS
      98      50.11418011      50.11418154      -2.838E-08      2.77    <-- DIS
      99      50.11418011      50.11418147      -2.712E-08      2.80    <-- DIS
     100      50.11418011      50.11418141      -2.594E-08      2.83    <-- DIS
     101      50.11418011      50.11418135      -2.483E-08      2.85    <-- DIS
     102      50.11418010      50.11418129      -2.379E-08      2.88    <-- DIS
     103      50.11418010      50.11418124      -2.281E-08      2.91    <-- DIS
     104      50.11418009      50.11418119      -2.189E-08      2.94    <-- DIS
     105      50.11418008      50.11418114      -2.102E-08      2.97    <-- DIS
     106      50.11418008      50.11418109      -2.020E-08      3.00    <-- DIS
     107      50.11418007      50.11418104      -1.943E-08      3.02    <-- DIS
     108      50.11418006      50.11418100      -1.870E-08      3.05    <-- DIS
     109      50.11418005      50.11418095      -1.802E-08      3.08    <-- DIS
     110      50.11418004      50.11418091      -1.737E-08      3.11    <-- DIS
     111      50.11418003      50.11418087      -1.675E-08      3.14    <-- DIS
     112      50.11418002      50.11418083      -1.617E-08      3.16    <-- DIS
     113      50.11418001      50.11418080      -1.562E-08      3.19    <-- DIS
     114      50.11418000      50.11418076      -1.510E-08      3.22    <-- DIS
     115      50.11417999      50.11418073      -1.460E-08      3.25    <-- DIS
     116      50.11417998      50.11418069      -1.413E-08      3.28    <-- DIS
     117      50.11417997      50.11418066      -1.369E-08      3.31    <-- DIS
     118      50.11417996      50.11418063      -1.326E-08      3.33    <-- DIS
     119      50.11417995      50.11418060      -1.286E-08      3.36    <-- DIS
     120      50.11417994      50.11418057      -1.248E-08      3.39    <-- DIS
     121      50.11417993      50.11418054      -1.211E-08      3.42    <-- DIS
     122      50.11417992      50.11418051      -1.176E-08      3.45    <-- DIS
     123      50.11417991      50.11418048      -1.143E-08      3.48    <-- DIS
     124      50.11417990      50.11418046      -1.111E-08      3.50    <-- DIS
     125      50.11417989      50.11418043      -1.081E-08      3.53    <-- DIS
     126      50.11417988      50.11418041      -1.052E-08      3.56    <-- DIS
     127      50.11417987      50.11418038      -1.024E-08      3.59    <-- DIS
     128      50.11417986      50.11418036      -9.972E-09      3.62    <-- DIS
     129      50.11417985      50.11418034      -9.717E-09      3.65    <-- DIS
     130      50.11417984      50.11418032      -9.472E-09      3.67    <-- DIS

             <<<      Delta < 1.000E-08  over  3 iterations     >>>
             <<< Disentanglement convergence criteria satisfied >>>

        Final Omega_I    50.11418032 (Ang^2)

 +----------------------------------------------------------------------------+

 Time to disentangle bands      4.535 (sec)

 Writing checkpoint file graphene.chk... done


 *------------------------------- WANNIERISE ---------------------------------*
 +--------------------------------------------------------------------+<-- CONV
 | Iter  Delta Spread     RMS Gradient      Spread (Ang^2)      Time  |<-- CONV
 +--------------------------------------------------------------------+<-- CONV

 ------------------------------------------------------------------------------
 Initial State
  WF centre and spread    1  (  0.291093,  0.262855,  3.667577 )     2.84063453
  WF centre and spread    2  (  0.291093,  0.262855,  3.667577 )     2.84063449
  WF centre and spread    3  (  0.371817, -0.401312,  3.000121 )     2.50098145
  WF centre and spread    4  (  0.371817, -0.401312,  3.000121 )     2.50098148
  WF centre and spread    5  ( -0.429891,  0.400663,  3.000005 )     2.45620289
  WF centre and spread    6  ( -0.429891,  0.400663,  3.000005 )     2.45620300
  WF centre and spread    7  ( -0.233730, -0.262188,  3.667281 )     2.87050140
  WF centre and spread    8  ( -0.233730, -0.262188,  3.667281 )     2.87050148
  WF centre and spread    9  (  0.349144,  2.841673,  5.197940 )     2.00870528
  WF centre and spread   10  (  0.349144,  2.841673,  5.197940 )     2.00870526
  WF centre and spread   11  (  0.304909,  2.187963,  4.540814 )     2.32812962
  WF centre and spread   12  (  0.304909,  2.187963,  4.540814 )     2.32812960
  WF centre and spread   13  ( -0.239916,  2.732165,  4.540977 )     2.36289187
  WF centre and spread   14  ( -0.239916,  2.732165,  4.540977 )     2.36289180
  WF centre and spread   15  ( -0.414609,  2.078188,  5.197985 )     1.95950479
  WF centre and spread   16  ( -0.414609,  2.078188,  5.197985 )     1.95950482
  WF centre and spread   17  (  0.000000, -0.000000, -0.000211 )     1.02717194
  WF centre and spread   18  (  0.000000, -0.000000, -0.000211 )     1.02717179
  WF centre and spread   19  (  1.420979,  2.460928,  0.001589 )     1.01031944
  WF centre and spread   20  (  1.420979,  2.460928,  0.001589 )     1.01031959
  WF centre and spread   21  (  2.130423,  1.230000,  0.004399 )     1.00685429
  WF centre and spread   22  (  2.130423,  1.230000,  0.004399 )     1.00685416
  WF centre and spread   23  ( -0.000000,  2.460000,  0.005003 )     1.01073357
  WF centre and spread   24  ( -0.000000,  2.460000,  0.005003 )     1.01073361
  WF centre and spread   25  (  1.419129,  0.000140,  0.001589 )     1.01032583
  WF centre and spread   26  (  1.419129,  0.000140,  0.001589 )     1.01032576
  WF centre and spread   27  ( -0.709686,  1.228932,  0.001589 )     1.01032569
  WF centre and spread   28  ( -0.709686,  1.228932,  0.001589 )     1.01032547
  WF centre and spread   29  (  0.709747, -0.000002,  0.000226 )     0.61285120
  WF centre and spread   30  (  0.709747, -0.000002,  0.000226 )     0.61285118
  WF centre and spread   31  (  2.840502,  1.229958,  0.000556 )     0.61399985
  WF centre and spread   32  (  2.840502,  1.229958,  0.000556 )     0.61399986
  WF centre and spread   33  (  0.710015,  2.460027,  0.000557 )     0.61421358
  WF centre and spread   34  (  0.710015,  2.460027,  0.000557 )     0.61421358
  WF centre and spread   35  ( -0.354984,  1.845096,  0.000557 )     0.61421384
  WF centre and spread   36  ( -0.354984,  1.845096,  0.000557 )     0.61421384
  WF centre and spread   37  (  1.775547,  3.075342,  0.000226 )     0.61285024
  WF centre and spread   38  (  1.775547,  3.075342,  0.000226 )     0.61285025
  WF centre and spread   39  (  1.775419,  1.844968,  0.000556 )     0.61400011
  WF centre and spread   40  (  1.775419,  1.844968,  0.000556 )     0.61400011
  WF centre and spread   41  ( -0.355030,  3.074878,  0.000557 )     0.61421336
  WF centre and spread   42  ( -0.355030,  3.074878,  0.000557 )     0.61421334
  WF centre and spread   43  (  1.775347,  0.615074,  0.000556 )     0.61400036
  WF centre and spread   44  (  1.775347,  0.615074,  0.000556 )     0.61400033
  WF centre and spread   45  ( -0.354872,  0.614660,  0.000226 )     0.61285120
  WF centre and spread   46  ( -0.354872,  0.614660,  0.000226 )     0.61285116
  Sum of centres and spreads ( 25.562708, 63.960019, 65.661347 )    61.85295228

      0     0.619E+02     0.0000000000       61.8529687860       4.00  <-- CONV
        O_D=      0.1196440 O_OD=     11.6191445 O_TOT=     61.8529688 <-- SPRD
 ------------------------------------------------------------------------------
 Cycle:      1
  WF centre and spread    1  (  0.292951,  0.263617,  3.667624 )     2.80785442
  WF centre and spread    2  (  0.292951,  0.263617,  3.667624 )     2.80785448
  WF centre and spread    3  (  0.371647, -0.402953,  2.998002 )     2.48614997
  WF centre and spread    4  (  0.371647, -0.402953,  2.998002 )     2.48615005
  WF centre and spread    5  ( -0.432807,  0.401833,  2.998460 )     2.43536765
  WF centre and spread    6  ( -0.432807,  0.401833,  2.998460 )     2.43536777
  WF centre and spread    7  ( -0.232856, -0.262463,  3.667691 )     2.83760693
  WF centre and spread    8  ( -0.232856, -0.262463,  3.667691 )     2.83760703
  WF centre and spread    9  (  0.349500,  2.843640,  5.201908 )     2.01305267
  WF centre and spread   10  (  0.349500,  2.843640,  5.201908 )     2.01305266
  WF centre and spread   11  (  0.306457,  2.187542,  4.542334 )     2.31315961
  WF centre and spread   12  (  0.306457,  2.187542,  4.542334 )     2.31315959
  WF centre and spread   13  ( -0.238701,  2.732153,  4.542027 )     2.34959640
  WF centre and spread   14  ( -0.238701,  2.732153,  4.542027 )     2.34959632
  WF centre and spread   15  ( -0.417701,  2.076640,  5.201194 )     1.95855353
  WF centre and spread   16  ( -0.417701,  2.076640,  5.201194 )     1.95855357
  WF centre and spread   17  ( -0.000006, -0.000002, -0.000848 )     1.02781627
  WF centre and spread   18  ( -0.000006, -0.000002, -0.000848 )     1.02781607
  WF centre and spread   19  (  1.421006,  2.461018,  0.000599 )     1.01061432
  WF centre and spread   20  (  1.421006,  2.461018,  0.000599 )     1.01061446
  WF centre and spread   21  (  2.130413,  1.230005,  0.003357 )     1.00682428
  WF centre and spread   22  (  2.130413,  1.230005,  0.003357 )     1.00682420
  WF centre and spread   23  (  0.000004,  2.460005,  0.003977 )     1.01074602
  WF centre and spread   24  (  0.000004,  2.460005,  0.003977 )     1.01074613
  WF centre and spread   25  (  1.419045,  0.000118,  0.000617 )     1.01056080
  WF centre and spread   26  (  1.419045,  0.000118,  0.000617 )     1.01056077
  WF centre and spread   27  ( -0.709629,  1.228874,  0.000630 )     1.01055431
  WF centre and spread   28  ( -0.709629,  1.228874,  0.000630 )     1.01055411
  WF centre and spread   29  (  0.709773,  0.000002, -0.000034 )     0.61116945
  WF centre and spread   30  (  0.709773,  0.000002, -0.000034 )     0.61116942
  WF centre and spread   31  (  2.840467,  1.229965,  0.000252 )     0.61154226
  WF centre and spread   32  (  2.840467,  1.229965,  0.000252 )     0.61154227
  WF centre and spread   33  (  0.710010,  2.460027,  0.000225 )     0.61151758
  WF centre and spread   34  (  0.710010,  2.460027,  0.000225 )     0.61151758
  WF centre and spread   35  ( -0.354992,  1.845094,  0.000241 )     0.61160936
  WF centre and spread   36  ( -0.354992,  1.845094,  0.000241 )     0.61160936
  WF centre and spread   37  (  1.775541,  3.075319, -0.000035 )     0.61116737
  WF centre and spread   38  (  1.775541,  3.075319, -0.000035 )     0.61116737
  WF centre and spread   39  (  1.775439,  1.844927,  0.000234 )     0.61143624
  WF centre and spread   40  (  1.775439,  1.844927,  0.000234 )     0.61143625
  WF centre and spread   41  ( -0.355035,  3.074879,  0.000241 )     0.61159415
  WF centre and spread   42  ( -0.355035,  3.074879,  0.000241 )     0.61159412
  WF centre and spread   43  (  1.775379,  0.615107,  0.000233 )     0.61144157
  WF centre and spread   44  (  1.775379,  0.615107,  0.000233 )     0.61144155
  WF centre and spread   45  ( -0.354892,  0.614681, -0.000029 )     0.61119694
  WF centre and spread   46  ( -0.354892,  0.614681, -0.000029 )     0.61119690
  Sum of centres and spreads ( 25.562025, 63.960052, 65.657798 )    61.56226416

      1    -0.291E+00     0.5930322565       61.5622806732       4.03  <-- CONV
        O_D=      0.1185885 O_OD=     11.3295119 O_TOT=     61.5622807 <-- SPRD
 Delta: O_D= -0.1055512E-02 O_OD= -0.2896326E+00 O_TOT= -0.2906881E+00 <-- DLTA
 ------------------------------------------------------------------------------
 Cycle:      2
  WF centre and spread    1  (  0.294553,  0.264355,  3.667660 )     2.78039835
  WF centre and spread    2  (  0.294553,  0.264355,  3.667660 )     2.78039839
  WF centre and spread    3  (  0.371468, -0.404305,  2.996568 )     2.47646162
  WF centre and spread    4  (  0.371468, -0.404305,  2.996568 )     2.47646167
  WF centre and spread    5  ( -0.435102,  0.402655,  2.997850 )     2.42127386
  WF centre and spread    6  ( -0.435102,  0.402655,  2.997850 )     2.42127397
  WF centre and spread    7  ( -0.232160, -0.262670,  3.668136 )     2.81006211
  WF centre and spread    8  ( -0.232160, -0.262670,  3.668136 )     2.81006219
  WF centre and spread    9  (  0.349623,  2.845041,  5.204707 )     2.02245377
  WF centre and spread   10  (  0.349623,  2.845041,  5.204707 )     2.02245378
  WF centre and spread   11  (  0.307968,  2.186840,  4.543129 )     2.30105965
  WF centre and spread   12  (  0.307968,  2.186840,  4.543129 )     2.30105962
  WF centre and spread   13  ( -0.238053,  2.732375,  4.542351 )     2.33901520
  WF centre and spread   14  ( -0.238053,  2.732375,  4.542351 )     2.33901512
  WF centre and spread   15  ( -0.419832,  2.075712,  5.203052 )     1.96387561
  WF centre and spread   16  ( -0.419832,  2.075712,  5.203052 )     1.96387562
  WF centre and spread   17  ( -0.000011, -0.000004, -0.001383 )     1.02882317
  WF centre and spread   18  ( -0.000011, -0.000004, -0.001383 )     1.02882299
  WF centre and spread   19  (  1.421031,  2.461107, -0.000197 )     1.01121825
  WF centre and spread   20  (  1.421031,  2.461107, -0.000197 )     1.01121839
  WF centre and spread   21  (  2.130403,  1.230014,  0.002542 )     1.00700885
  WF centre and spread   22  (  2.130403,  1.230014,  0.002542 )     1.00700878
  WF centre and spread   23  (  0.000008,  2.460014,  0.003154 )     1.01100899
  WF centre and spread   24  (  0.000008,  2.460013,  0.003154 )     1.01100910
  WF centre and spread   25  (  1.418958,  0.000094, -0.000171 )     1.01110962
  WF centre and spread   26  (  1.418958,  0.000094, -0.000171 )     1.01110959
  WF centre and spread   27  ( -0.709569,  1.228814, -0.000149 )     1.01110515
  WF centre and spread   28  ( -0.709569,  1.228814, -0.000149 )     1.01110497
  WF centre and spread   29  (  0.709796, -0.000001, -0.000209 )     0.61035230
  WF centre and spread   30  (  0.709796, -0.000001, -0.000209 )     0.61035227
  WF centre and spread   31  (  2.840447,  1.229972,  0.000088 )     0.61065523
  WF centre and spread   32  (  2.840447,  1.229972,  0.000088 )     0.61065523
  WF centre and spread   33  (  0.709989,  2.460019,  0.000044 )     0.61042400
  WF centre and spread   34  (  0.709989,  2.460019,  0.000044 )     0.61042399
  WF centre and spread   35  ( -0.354990,  1.845111,  0.000065 )     0.61052653
  WF centre and spread   36  ( -0.354990,  1.845111,  0.000065 )     0.61052653
  WF centre and spread   37  (  1.775528,  3.075299, -0.000212 )     0.61034432
  WF centre and spread   38  (  1.775528,  3.075299, -0.000212 )     0.61034433
  WF centre and spread   39  (  1.775443,  1.844905,  0.000066 )     0.61054319
  WF centre and spread   40  (  1.775443,  1.844905,  0.000066 )     0.61054320
  WF centre and spread   41  ( -0.355025,  3.074867,  0.000065 )     0.61050299
  WF centre and spread   42  ( -0.355025,  3.074867,  0.000065 )     0.61050296
  WF centre and spread   43  (  1.775391,  0.615121,  0.000065 )     0.61055707
  WF centre and spread   44  (  1.775391,  0.615121,  0.000065 )     0.61055704
  WF centre and spread   45  ( -0.354904,  0.614703, -0.000203 )     0.61037496
  WF centre and spread   46  ( -0.354904,  0.614703, -0.000203 )     0.61037492
  Sum of centres and spreads ( 25.561921, 63.960074, 65.654033 )    61.37830940

      2    -0.184E+00     0.7164920112       61.3783259094       4.06  <-- CONV
        O_D=      0.1147155 O_OD=     11.1494301 O_TOT=     61.3783259 <-- SPRD
 Delta: O_D= -0.3873039E-02 O_OD= -0.1800817E+00 O_TOT= -0.1839548E+00 <-- DLTA
 ------------------------------------------------------------------------------
 Cycle:      3
  WF centre and spread    1  (  0.296175,  0.265197,  3.667741 )     2.75658683
  WF centre and spread    2  (  0.296175,  0.265197,  3.667741 )     2.75658686
  WF centre and spread    3  (  0.371256, -0.405566,  2.995568 )     2.46952730
  WF centre and spread    4  (  0.371256, -0.405566,  2.995568 )     2.46952734
  WF centre and spread    5  ( -0.437103,  0.403263,  2.997993 )     2.41066376
  WF centre and spread    6  ( -0.437103,  0.403263,  2.997993 )     2.41066383
  WF centre and spread    7  ( -0.231550, -0.262885,  3.668746 )     2.78716546
  WF centre and spread    8  ( -0.231550, -0.262885,  3.668746 )     2.78716554
  WF centre and spread    9  (  0.349428,  2.846178,  5.206804 )     2.03218757
  WF centre and spread   10  (  0.349428,  2.846178,  5.206804 )     2.03218756
  WF centre and spread   11  (  0.309667,  2.185892,  4.543491 )     2.28922110
  WF centre and spread   12  (  0.309667,  2.185892,  4.543491 )     2.28922109
  WF centre and spread   13  ( -0.237605,  2.732755,  4.542148 )     2.32937698
  WF centre and spread   14  ( -0.237605,  2.732755,  4.542148 )     2.32937690
  WF centre and spread   15  ( -0.421626,  2.075142,  5.203963 )     1.96978931
  WF centre and spread   16  ( -0.421626,  2.075142,  5.203963 )     1.96978930
  WF centre and spread   17  ( -0.000013, -0.000004, -0.001888 )     1.03041192
  WF centre and spread   18  ( -0.000013, -0.000004, -0.001889 )     1.03041173
  WF centre and spread   19  (  1.421073,  2.461226, -0.000854 )     1.01231807
  WF centre and spread   20  (  1.421073,  2.461226, -0.000854 )     1.01231821
  WF centre and spread   21  (  2.130396,  1.230025,  0.001922 )     1.00767078
  WF centre and spread   22  (  2.130396,  1.230025,  0.001922 )     1.00767068
  WF centre and spread   23  (  0.000012,  2.460024,  0.002503 )     1.01204639
  WF centre and spread   24  (  0.000012,  2.460024,  0.002503 )     1.01204648
  WF centre and spread   25  (  1.418835,  0.000069, -0.000828 )     1.01219918
  WF centre and spread   26  (  1.418835,  0.000069, -0.000828 )     1.01219911
  WF centre and spread   27  ( -0.709488,  1.228722, -0.000805 )     1.01217642
  WF centre and spread   28  ( -0.709488,  1.228722, -0.000805 )     1.01217622
  WF centre and spread   29  (  0.709818, -0.000003, -0.000344 )     0.60981686
  WF centre and spread   30  (  0.709818, -0.000003, -0.000344 )     0.60981684
  WF centre and spread   31  (  2.840430,  1.229977, -0.000024 )     0.61013538
  WF centre and spread   32  (  2.840430,  1.229977, -0.000024 )     0.61013538
  WF centre and spread   33  (  0.709977,  2.460012, -0.000064 )     0.60990776
  WF centre and spread   34  (  0.709977,  2.460012, -0.000064 )     0.60990776
  WF centre and spread   35  ( -0.354984,  1.845127, -0.000047 )     0.60999142
  WF centre and spread   36  ( -0.354984,  1.845127, -0.000047 )     0.60999142
  WF centre and spread   37  (  1.775516,  3.075281, -0.000348 )     0.60979250
  WF centre and spread   38  (  1.775516,  3.075281, -0.000348 )     0.60979250
  WF centre and spread   39  (  1.775445,  1.844888, -0.000040 )     0.61006080
  WF centre and spread   40  (  1.775445,  1.844888, -0.000040 )     0.61006081
  WF centre and spread   41  ( -0.355009,  3.074857, -0.000047 )     0.60997184
  WF centre and spread   42  ( -0.355009,  3.074857, -0.000047 )     0.60997182
  WF centre and spread   43  (  1.775400,  0.615132, -0.000040 )     0.61008609
  WF centre and spread   44  (  1.775400,  0.615132, -0.000040 )     0.61008606
  WF centre and spread   45  ( -0.354912,  0.614723, -0.000340 )     0.60981326
  WF centre and spread   46  ( -0.354912,  0.614723, -0.000340 )     0.60981322
  Sum of centres and spreads ( 25.562273, 63.960065, 65.650420 )    61.24183360

      3    -0.136E+00     0.5862501741       61.2418501113       4.09  <-- CONV
        O_D=      0.1157755 O_OD=     11.0118943 O_TOT=     61.2418501 <-- SPRD
 Delta: O_D=  0.1060011E-02 O_OD= -0.1375358E+00 O_TOT= -0.1364758E+00 <-- DLTA
 ------------------------------------------------------------------------------
 Cycle:      4
  WF centre and spread    1  (  0.297625,  0.266046,  3.667895 )     2.73907608
  WF centre and spread    2  (  0.297625,  0.266046,  3.667895 )     2.73907611
  WF centre and spread    3  (  0.370911, -0.406484,  2.994996 )     2.46584583
  WF centre and spread    4  (  0.370911, -0.406484,  2.994996 )     2.46584584
  WF centre and spread    5  ( -0.438534,  0.403521,  2.998609 )     2.40533397
  WF centre and spread    6  ( -0.438534,  0.403521,  2.998609 )     2.40533403
  WF centre and spread    7  ( -0.231135, -0.263109,  3.669469 )     2.77151026
  WF centre and spread    8  ( -0.231135, -0.263109,  3.669469 )     2.77151033
  WF centre and spread    9  (  0.348889,  2.846898,  5.208038 )     2.03926840
  WF centre and spread   10  (  0.348889,  2.846898,  5.208038 )     2.03926838
  WF centre and spread   11  (  0.311247,  2.184971,  4.543535 )     2.27939309
  WF centre and spread   12  (  0.311247,  2.184971,  4.543535 )     2.27939308
  WF centre and spread   13  ( -0.237239,  2.733117,  4.541612 )     2.32196450
  WF centre and spread   14  ( -0.237239,  2.733117,  4.541612 )     2.32196443
  WF centre and spread   15  ( -0.422929,  2.074985,  5.204018 )     1.97481225
  WF centre and spread   16  ( -0.422929,  2.074985,  5.204018 )     1.97481226
  WF centre and spread   17  ( -0.000014, -0.000004, -0.002274 )     1.03216008
  WF centre and spread   18  ( -0.000014, -0.000004, -0.002274 )     1.03215990
  WF centre and spread   19  (  1.421129,  2.461360, -0.001268 )     1.01352268
  WF centre and spread   20  (  1.421129,  2.461360, -0.001268 )     1.01352282
  WF centre and spread   21  (  2.130398,  1.230034,  0.001586 )     1.00840789
  WF centre and spread   22  (  2.130398,  1.230034,  0.001585 )     1.00840778
  WF centre and spread   23  (  0.000008,  2.460034,  0.002135 )     1.01319823
  WF centre and spread   24  (  0.000008,  2.460034,  0.002135 )     1.01319829
  WF centre and spread   25  (  1.418691,  0.000053, -0.001248 )     1.01343463
  WF centre and spread   26  (  1.418691,  0.000053, -0.001248 )     1.01343455
  WF centre and spread   27  ( -0.709402,  1.228606, -0.001231 )     1.01343110
  WF centre and spread   28  ( -0.709402,  1.228606, -0.001231 )     1.01343090
  WF centre and spread   29  (  0.709834, -0.000003, -0.000430 )     0.60946440
  WF centre and spread   30  (  0.709834, -0.000003, -0.000430 )     0.60946438
  WF centre and spread   31  (  2.840417,  1.229978, -0.000095 )     0.60975546
  WF centre and spread   32  (  2.840417,  1.229978, -0.000095 )     0.60975546
  WF centre and spread   33  (  0.709976,  2.460010, -0.000121 )     0.60963001
  WF centre and spread   34  (  0.709976,  2.460010, -0.000121 )     0.60963001
  WF centre and spread   35  ( -0.354979,  1.845133, -0.000112 )     0.60967408
  WF centre and spread   36  ( -0.354979,  1.845133, -0.000112 )     0.60967409
  WF centre and spread   37  (  1.775508,  3.075268, -0.000434 )     0.60944716
  WF centre and spread   38  (  1.775508,  3.075268, -0.000434 )     0.60944716
  WF centre and spread   39  (  1.775447,  1.844877, -0.000102 )     0.60971485
  WF centre and spread   40  (  1.775447,  1.844877, -0.000102 )     0.60971486
  WF centre and spread   41  ( -0.354997,  3.074853, -0.000112 )     0.60966014
  WF centre and spread   42  ( -0.354997,  3.074853, -0.000112 )     0.60966012
  WF centre and spread   43  (  1.775408,  0.615142, -0.000102 )     0.60973899
  WF centre and spread   44  (  1.775408,  0.615142, -0.000102 )     0.60973896
  WF centre and spread   45  ( -0.354919,  0.614735, -0.000427 )     0.60945454
  WF centre and spread   46  ( -0.354919,  0.614735, -0.000427 )     0.60945449
  Sum of centres and spreads ( 25.562679, 63.960042, 65.647874 )    61.15579683

      4    -0.860E-01     0.4789803242       61.1558133461       4.12  <-- CONV
        O_D=      0.1154804 O_OD=     10.9261526 O_TOT=     61.1558133 <-- SPRD
 Delta: O_D= -0.2950279E-03 O_OD= -0.8574174E-01 O_TOT= -0.8603677E-01 <-- DLTA
 ------------------------------------------------------------------------------
 Cycle:      5
  WF centre and spread    1  (  0.298916,  0.266857,  3.668078 )     2.72653232
  WF centre and spread    2  (  0.298916,  0.266857,  3.668078 )     2.72653234
  WF centre and spread    3  (  0.370409, -0.407080,  2.994666 )     2.46469687
  WF centre and spread    4  (  0.370409, -0.407080,  2.994666 )     2.46469688
  WF centre and spread    5  ( -0.439544,  0.403521,  2.999322 )     2.40435951
  WF centre and spread    6  ( -0.439544,  0.403521,  2.999322 )     2.40435955
  WF centre and spread    7  ( -0.230856, -0.263344,  3.670208 )     2.76159282
  WF centre and spread    8  ( -0.230856, -0.263344,  3.670208 )     2.76159288
  WF centre and spread    9  (  0.348164,  2.847288,  5.208704 )     2.04421255
  WF centre and spread   10  (  0.348164,  2.847288,  5.208704 )     2.04421254
  WF centre and spread   11  (  0.312595,  2.184193,  4.543476 )     2.27194803
  WF centre and spread   12  (  0.312595,  2.184193,  4.543476 )     2.27194801
  WF centre and spread   13  ( -0.236892,  2.733392,  4.540994 )     2.31701584
  WF centre and spread   14  ( -0.236892,  2.733392,  4.540994 )     2.31701577
  WF centre and spread   15  ( -0.423825,  2.075097,  5.203652 )     1.97969579
  WF centre and spread   16  ( -0.423825,  2.075097,  5.203652 )     1.97969581
  WF centre and spread   17  ( -0.000014, -0.000004, -0.002532 )     1.03365455
  WF centre and spread   18  ( -0.000014, -0.000004, -0.002532 )     1.03365437
  WF centre and spread   19  (  1.421186,  2.461477, -0.001487 )     1.01435469
  WF centre and spread   20  (  1.421186,  2.461476, -0.001487 )     1.01435484
  WF centre and spread   21  (  2.130409,  1.230038,  0.001453 )     1.00880546
  WF centre and spread   22  (  2.130409,  1.230038,  0.001453 )     1.00880533
  WF centre and spread   23  ( -0.000003,  2.460040,  0.001984 )     1.01379303
  WF centre and spread   24  ( -0.000003,  2.460040,  0.001984 )     1.01379308
  WF centre and spread   25  (  1.418559,  0.000050, -0.001476 )     1.01431577
  WF centre and spread   26  (  1.418559,  0.000050, -0.001476 )     1.01431568
  WF centre and spread   27  ( -0.709334,  1.228496, -0.001466 )     1.01438444
  WF centre and spread   28  ( -0.709334,  1.228495, -0.001466 )     1.01438423
  WF centre and spread   29  (  0.709845, -0.000001, -0.000480 )     0.60924465
  WF centre and spread   30  (  0.709845, -0.000001, -0.000480 )     0.60924463
  WF centre and spread   31  (  2.840403,  1.229978, -0.000138 )     0.60945529
  WF centre and spread   32  (  2.840403,  1.229978, -0.000138 )     0.60945530
  WF centre and spread   33  (  0.709978,  2.460011, -0.000152 )     0.60942673
  WF centre and spread   34  (  0.709978,  2.460011, -0.000152 )     0.60942673
  WF centre and spread   35  ( -0.354977,  1.845135, -0.000151 )     0.60943172
  WF centre and spread   36  ( -0.354977,  1.845135, -0.000151 )     0.60943172
  WF centre and spread   37  (  1.775503,  3.075258, -0.000482 )     0.60924805
  WF centre and spread   38  (  1.775503,  3.075258, -0.000482 )     0.60924806
  WF centre and spread   39  (  1.775451,  1.844868, -0.000138 )     0.60943999
  WF centre and spread   40  (  1.775451,  1.844868, -0.000138 )     0.60944000
  WF centre and spread   41  ( -0.354993,  3.074852, -0.000152 )     0.60941853
  WF centre and spread   42  ( -0.354993,  3.074852, -0.000152 )     0.60941851
  WF centre and spread   43  (  1.775412,  0.615152, -0.000138 )     0.60945589
  WF centre and spread   44  (  1.775412,  0.615152, -0.000138 )     0.60945586
  WF centre and spread   45  ( -0.354924,  0.614744, -0.000477 )     0.60924286
  WF centre and spread   46  ( -0.354925,  0.614743, -0.000477 )     0.60924282
  Sum of centres and spreads ( 25.562934, 63.960028, 65.646539 )    61.10745032

      5    -0.483E-01     0.3713296127       61.1074668336       4.15  <-- CONV
        O_D=      0.1161251 O_OD=     10.8771614 O_TOT=     61.1074668 <-- SPRD
 Delta: O_D=  0.6446352E-03 O_OD= -0.4899115E-01 O_TOT= -0.4834651E-01 <-- DLTA
 ------------------------------------------------------------------------------
 Cycle:      6
  WF centre and spread    1  (  0.299925,  0.267508,  3.668164 )     2.71840214
  WF centre and spread    2  (  0.299925,  0.267508,  3.668164 )     2.71840215
  WF centre and spread    3  (  0.369885, -0.407428,  2.994413 )     2.46479896
  WF centre and spread    4  (  0.369885, -0.407428,  2.994413 )     2.46479897
  WF centre and spread    5  ( -0.440229,  0.403413,  2.999833 )     2.40543382
  WF centre and spread    6  ( -0.440229,  0.403413,  2.999833 )     2.40543387
  WF centre and spread    7  ( -0.230664, -0.263536,  3.670768 )     2.75614770
  WF centre and spread    8  ( -0.230664, -0.263536,  3.670768 )     2.75614775
  WF centre and spread    9  (  0.347487,  2.847475,  5.209094 )     2.04730952
  WF centre and spread   10  (  0.347487,  2.847475,  5.209094 )     2.04730952
  WF centre and spread   11  (  0.313599,  2.183618,  4.543476 )     2.26741881
  WF centre and spread   12  (  0.313599,  2.183618,  4.543476 )     2.26741880
  WF centre and spread   13  ( -0.236609,  2.733572,  4.540517 )     2.31467471
  WF centre and spread   14  ( -0.236609,  2.733572,  4.540517 )     2.31467464
  WF centre and spread   15  ( -0.424408,  2.075294,  5.203272 )     1.98381765
  WF centre and spread   16  ( -0.424408,  2.075294,  5.203272 )     1.98381767
  WF centre and spread   17  ( -0.000013, -0.000004, -0.002679 )     1.03462092
  WF centre and spread   18  ( -0.000013, -0.000004, -0.002679 )     1.03462075
  WF centre and spread   19  (  1.421225,  2.461551, -0.001578 )     1.01472096
  WF centre and spread   20  (  1.421225,  2.461550, -0.001578 )     1.01472111
  WF centre and spread   21  (  2.130422,  1.230038,  0.001434 )     1.00881434
  WF centre and spread   22  (  2.130422,  1.230038,  0.001434 )     1.00881420
  WF centre and spread   23  ( -0.000016,  2.460042,  0.001961 )     1.01384052
  WF centre and spread   24  ( -0.000016,  2.460042,  0.001961 )     1.01384057
  WF centre and spread   25  (  1.418471,  0.000053, -0.001573 )     1.01473209
  WF centre and spread   26  (  1.418471,  0.000053, -0.001573 )     1.01473202
  WF centre and spread   27  ( -0.709291,  1.228422, -0.001571 )     1.01488816
  WF centre and spread   28  ( -0.709291,  1.228422, -0.001571 )     1.01488795
  WF centre and spread   29  (  0.709853,  0.000000, -0.000503 )     0.60911516
  WF centre and spread   30  (  0.709853,  0.000000, -0.000503 )     0.60911514
  WF centre and spread   31  (  2.840395,  1.229979, -0.000159 )     0.60930597
  WF centre and spread   32  (  2.840395,  1.229979, -0.000159 )     0.60930597
  WF centre and spread   33  (  0.709978,  2.460012, -0.000168 )     0.60928604
  WF centre and spread   34  (  0.709978,  2.460012, -0.000168 )     0.60928604
  WF centre and spread   35  ( -0.354976,  1.845136, -0.000172 )     0.60927529
  WF centre and spread   36  ( -0.354976,  1.845136, -0.000172 )     0.60927529
  WF centre and spread   37  (  1.775499,  3.075250, -0.000505 )     0.60912682
  WF centre and spread   38  (  1.775499,  3.075250, -0.000505 )     0.60912682
  WF centre and spread   39  (  1.775454,  1.844862, -0.000154 )     0.60930814
  WF centre and spread   40  (  1.775454,  1.844862, -0.000154 )     0.60930816
  WF centre and spread   41  ( -0.354994,  3.074851, -0.000173 )     0.60926268
  WF centre and spread   42  ( -0.354994,  3.074851, -0.000173 )     0.60926266
  WF centre and spread   43  (  1.775415,  0.615158, -0.000154 )     0.60931881
  WF centre and spread   44  (  1.775415,  0.615158, -0.000154 )     0.60931878
  WF centre and spread   45  ( -0.354929,  0.614749, -0.000501 )     0.60911566
  WF centre and spread   46  ( -0.354929,  0.614749, -0.000501 )     0.60911562
  Sum of centres and spreads ( 25.562953, 63.960027, 65.646082 )    61.08546931

      6    -0.220E-01     0.2664322753       61.0854858220       4.18  <-- CONV
        O_D=      0.1153372 O_OD=     10.8559683 O_TOT=     61.0854858 <-- SPRD
 Delta: O_D= -0.7878999E-03 O_OD= -0.2119311E-01 O_TOT= -0.2198101E-01 <-- DLTA
 ------------------------------------------------------------------------------
 Cycle:      7
  WF centre and spread    1  (  0.300224,  0.267700,  3.668098 )     2.71661182
  WF centre and spread    2  (  0.300223,  0.267700,  3.668098 )     2.71661182
  WF centre and spread    3  (  0.369660, -0.407485,  2.994284 )     2.46459949
  WF centre and spread    4  (  0.369660, -0.407485,  2.994284 )     2.46459950
  WF centre and spread    5  ( -0.440399,  0.403329,  2.999912 )     2.40567969
  WF centre and spread    6  ( -0.440399,  0.403329,  2.999912 )     2.40567973
  WF centre and spread    7  ( -0.230595, -0.263580,  3.670870 )     2.75546238
  WF centre and spread    8  ( -0.230595, -0.263580,  3.670870 )     2.75546244
  WF centre and spread    9  (  0.347245,  2.847511,  5.209241 )     2.04731639
  WF centre and spread   10  (  0.347245,  2.847511,  5.209241 )     2.04731639
  WF centre and spread   11  (  0.313880,  2.183465,  4.543569 )     2.26654571
  WF centre and spread   12  (  0.313880,  2.183465,  4.543569 )     2.26654570
  WF centre and spread   13  ( -0.236502,  2.733601,  4.540437 )     2.31463673
  WF centre and spread   14  ( -0.236502,  2.733601,  4.540437 )     2.31463666
  WF centre and spread   15  ( -0.424577,  2.075375,  5.203200 )     1.98439321
  WF centre and spread   16  ( -0.424577,  2.075375,  5.203200 )     1.98439323
  WF centre and spread   17  ( -0.000013, -0.000004, -0.002703 )     1.03471455
  WF centre and spread   18  ( -0.000013, -0.000004, -0.002703 )     1.03471439
  WF centre and spread   19  (  1.421230,  2.461559, -0.001579 )     1.01464363
  WF centre and spread   20  (  1.421230,  2.461559, -0.001579 )     1.01464378
  WF centre and spread   21  (  2.130426,  1.230037,  0.001456 )     1.00867016
  WF centre and spread   22  (  2.130427,  1.230037,  0.001456 )     1.00867002
  WF centre and spread   23  ( -0.000020,  2.460042,  0.001987 )     1.01367648
  WF centre and spread   24  ( -0.000020,  2.460042,  0.001987 )     1.01367654
  WF centre and spread   25  (  1.418460,  0.000055, -0.001576 )     1.01467805
  WF centre and spread   26  (  1.418460,  0.000055, -0.001576 )     1.01467797
  WF centre and spread   27  ( -0.709286,  1.228412, -0.001577 )     1.01486383
  WF centre and spread   28  ( -0.709286,  1.228412, -0.001577 )     1.01486362
  WF centre and spread   29  (  0.709854,  0.000001, -0.000507 )     0.60906822
  WF centre and spread   30  (  0.709854,  0.000001, -0.000506 )     0.60906820
  WF centre and spread   31  (  2.840394,  1.229979, -0.000163 )     0.60925624
  WF centre and spread   32  (  2.840394,  1.229979, -0.000163 )     0.60925624
  WF centre and spread   33  (  0.709977,  2.460013, -0.000173 )     0.60923031
  WF centre and spread   34  (  0.709977,  2.460013, -0.000173 )     0.60923030
  WF centre and spread   35  ( -0.354976,  1.845136, -0.000177 )     0.60922320
  WF centre and spread   36  ( -0.354976,  1.845136, -0.000177 )     0.60922320
  WF centre and spread   37  (  1.775499,  3.075249, -0.000508 )     0.60907808
  WF centre and spread   38  (  1.775499,  3.075249, -0.000508 )     0.60907809
  WF centre and spread   39  (  1.775455,  1.844862, -0.000158 )     0.60925801
  WF centre and spread   40  (  1.775455,  1.844862, -0.000158 )     0.60925802
  WF centre and spread   41  ( -0.354995,  3.074851, -0.000177 )     0.60921148
  WF centre and spread   42  ( -0.354995,  3.074851, -0.000177 )     0.60921146
  WF centre and spread   43  (  1.775415,  0.615158, -0.000158 )     0.60926783
  WF centre and spread   44  (  1.775415,  0.615158, -0.000158 )     0.60926780
  WF centre and spread   45  ( -0.354930,  0.614750, -0.000504 )     0.60906795
  WF centre and spread   46  ( -0.354930,  0.614750, -0.000504 )     0.60906792
  Sum of centres and spreads ( 25.562851, 63.960028, 65.646187 )    61.07830648

      7    -0.716E-02     0.1762734252       61.0783229918       4.20  <-- CONV
        O_D=      0.1147624 O_OD=     10.8493803 O_TOT=     61.0783230 <-- SPRD
 Delta: O_D= -0.5747581E-03 O_OD= -0.6588072E-02 O_TOT= -0.7162830E-02 <-- DLTA
 ------------------------------------------------------------------------------
 Cycle:      8
  WF centre and spread    1  (  0.301047,  0.268223,  3.667892 )     2.71244656
  WF centre and spread    2  (  0.301047,  0.268223,  3.667892 )     2.71244656
  WF centre and spread    3  (  0.369024, -0.407647,  2.993931 )     2.46472981
  WF centre and spread    4  (  0.369024, -0.407647,  2.993931 )     2.46472981
  WF centre and spread    5  ( -0.440867,  0.403082,  3.000164 )     2.40703452
  WF centre and spread    6  ( -0.440867,  0.403082,  3.000164 )     2.40703457
  WF centre and spread    7  ( -0.230376, -0.263677,  3.671143 )     2.75433700
  WF centre and spread    8  ( -0.230376, -0.263677,  3.671143 )     2.75433705
  WF centre and spread    9  (  0.346556,  2.847609,  5.209637 )     2.04787486
  WF centre and spread   10  (  0.346556,  2.847609,  5.209637 )     2.04787486
  WF centre and spread   11  (  0.314677,  2.183032,  4.543823 )     2.26471648
  WF centre and spread   12  (  0.314677,  2.183032,  4.543823 )     2.26471646
  WF centre and spread   13  ( -0.236199,  2.733681,  4.540197 )     2.31512958
  WF centre and spread   14  ( -0.236199,  2.733681,  4.540197 )     2.31512951
  WF centre and spread   15  ( -0.425040,  2.075615,  5.202957 )     1.98648312
  WF centre and spread   16  ( -0.425040,  2.075615,  5.202957 )     1.98648315
  WF centre and spread   17  ( -0.000012, -0.000005, -0.002765 )     1.03509515
  WF centre and spread   18  ( -0.000012, -0.000005, -0.002765 )     1.03509499
  WF centre and spread   19  (  1.421244,  2.461583, -0.001577 )     1.01452496
  WF centre and spread   20  (  1.421244,  2.461583, -0.001577 )     1.01452511
  WF centre and spread   21  (  2.130439,  1.230034,  0.001518 )     1.00836047
  WF centre and spread   22  (  2.130439,  1.230034,  0.001518 )     1.00836033
  WF centre and spread   23  ( -0.000031,  2.460041,  0.002060 )     1.01331188
  WF centre and spread   24  ( -0.000031,  2.460041,  0.002060 )     1.01331193
  WF centre and spread   25  (  1.418429,  0.000061, -0.001581 )     1.01462746
  WF centre and spread   26  (  1.418429,  0.000061, -0.001581 )     1.01462738
  WF centre and spread   27  ( -0.709273,  1.228383, -0.001591 )     1.01489596
  WF centre and spread   28  ( -0.709273,  1.228383, -0.001591 )     1.01489575
  WF centre and spread   29  (  0.709858,  0.000002, -0.000511 )     0.60900822
  WF centre and spread   30  (  0.709858,  0.000002, -0.000511 )     0.60900819
  WF centre and spread   31  (  2.840393,  1.229978, -0.000171 )     0.60919735
  WF centre and spread   32  (  2.840393,  1.229978, -0.000171 )     0.60919736
  WF centre and spread   33  (  0.709976,  2.460015, -0.000181 )     0.60915823
  WF centre and spread   34  (  0.709976,  2.460015, -0.000181 )     0.60915822
  WF centre and spread   35  ( -0.354976,  1.845136, -0.000185 )     0.60915876
  WF centre and spread   36  ( -0.354976,  1.845136, -0.000185 )     0.60915876
  WF centre and spread   37  (  1.775498,  3.075245, -0.000512 )     0.60901519
  WF centre and spread   38  (  1.775498,  3.075245, -0.000512 )     0.60901520
  WF centre and spread   39  (  1.775457,  1.844862, -0.000166 )     0.60919672
  WF centre and spread   40  (  1.775457,  1.844862, -0.000166 )     0.60919673
  WF centre and spread   41  ( -0.354998,  3.074849, -0.000186 )     0.60914913
  WF centre and spread   42  ( -0.354998,  3.074849, -0.000186 )     0.60914911
  WF centre and spread   43  (  1.775416,  0.615160, -0.000166 )     0.60920406
  WF centre and spread   44  (  1.775416,  0.615160, -0.000166 )     0.60920402
  WF centre and spread   45  ( -0.354932,  0.614753, -0.000509 )     0.60900718
  WF centre and spread   46  ( -0.354932,  0.614753, -0.000509 )     0.60900714
  Sum of centres and spreads ( 25.562620, 63.960031, 65.646441 )    61.07132482

      8    -0.698E-02     0.1262253138       61.0713413389       4.23  <-- CONV
        O_D=      0.1142636 O_OD=     10.8428975 O_TOT=     61.0713413 <-- SPRD
 Delta: O_D= -0.4988615E-03 O_OD= -0.6482791E-02 O_TOT= -0.6981653E-02 <-- DLTA
 ------------------------------------------------------------------------------
 Cycle:      9
  WF centre and spread    1  (  0.302159,  0.268909,  3.667576 )     2.70718930
  WF centre and spread    2  (  0.302159,  0.268909,  3.667576 )     2.70718930
  WF centre and spread    3  (  0.368147, -0.407885,  2.993456 )     2.46483387
  WF centre and spread    4  (  0.368147, -0.407885,  2.993456 )     2.46483386
  WF centre and spread    5  ( -0.441508,  0.402729,  3.000570 )     2.40853013
  WF centre and spread    6  ( -0.441508,  0.402729,  3.000570 )     2.40853018
  WF centre and spread    7  ( -0.230012, -0.263756,  3.671494 )     2.75317034
  WF centre and spread    8  ( -0.230012, -0.263756,  3.671494 )     2.75317039
  WF centre and spread    9  (  0.345595,  2.847752,  5.210158 )     2.04876527
  WF centre and spread   10  (  0.345595,  2.847752,  5.210158 )     2.04876528
  WF centre and spread   11  (  0.315786,  2.182428,  4.544174 )     2.26254181
  WF centre and spread   12  (  0.315786,  2.182428,  4.544174 )     2.26254180
  WF centre and spread   13  ( -0.235766,  2.733780,  4.539849 )     2.31612684
  WF centre and spread   14  ( -0.235766,  2.733780,  4.539849 )     2.31612678
  WF centre and spread   15  ( -0.425673,  2.075963,  5.202554 )     1.98912653
  WF centre and spread   16  ( -0.425673,  2.075963,  5.202554 )     1.98912656
  WF centre and spread   17  ( -0.000011, -0.000005, -0.002844 )     1.03569709
  WF centre and spread   18  ( -0.000011, -0.000005, -0.002844 )     1.03569694
  WF centre and spread   19  (  1.421261,  2.461612, -0.001574 )     1.01445145
  WF centre and spread   20  (  1.421261,  2.461612, -0.001574 )     1.01445160
  WF centre and spread   21  (  2.130453,  1.230032,  0.001598 )     1.00804490
  WF centre and spread   22  (  2.130453,  1.230032,  0.001598 )     1.00804477
  WF centre and spread   23  ( -0.000044,  2.460041,  0.002152 )     1.01292896
  WF centre and spread   24  ( -0.000044,  2.460041,  0.002152 )     1.01292901
  WF centre and spread   25  (  1.418390,  0.000068, -0.001587 )     1.01464716
  WF centre and spread   26  (  1.418390,  0.000068, -0.001586 )     1.01464710
  WF centre and spread   27  ( -0.709255,  1.228347, -0.001608 )     1.01501988
  WF centre and spread   28  ( -0.709255,  1.228347, -0.001608 )     1.01501968
  WF centre and spread   29  (  0.709861,  0.000003, -0.000512 )     0.60897399
  WF centre and spread   30  (  0.709861,  0.000003, -0.000512 )     0.60897397
  WF centre and spread   31  (  2.840391,  1.229976, -0.000178 )     0.60916526
  WF centre and spread   32  (  2.840391,  1.229976, -0.000178 )     0.60916526
  WF centre and spread   33  (  0.709974,  2.460017, -0.000186 )     0.60911569
  WF centre and spread   34  (  0.709974,  2.460017, -0.000186 )     0.60911568
  WF centre and spread   35  ( -0.354974,  1.845137, -0.000192 )     0.60912134
  WF centre and spread   36  ( -0.354974,  1.845137, -0.000192 )     0.60912134
  WF centre and spread   37  (  1.775496,  3.075241, -0.000512 )     0.60897910
  WF centre and spread   38  (  1.775496,  3.075241, -0.000512 )     0.60897911
  WF centre and spread   39  (  1.775460,  1.844863, -0.000172 )     0.60916215
  WF centre and spread   40  (  1.775460,  1.844863, -0.000172 )     0.60916216
  WF centre and spread   41  ( -0.355001,  3.074848, -0.000192 )     0.60911445
  WF centre and spread   42  ( -0.355001,  3.074848, -0.000192 )     0.60911443
  WF centre and spread   43  (  1.775416,  0.615162, -0.000171 )     0.60916572
  WF centre and spread   44  (  1.775416,  0.615162, -0.000171 )     0.60916569
  WF centre and spread   45  ( -0.354934,  0.614756, -0.000510 )     0.60897281
  WF centre and spread   46  ( -0.354934,  0.614756, -0.000510 )     0.60897277
  Sum of centres and spreads ( 25.562425, 63.960031, 65.646691 )    61.06568769

      9    -0.564E-02     0.1174069079       61.0657042008       4.26  <-- CONV
        O_D=      0.1137765 O_OD=     10.8377474 O_TOT=     61.0657042 <-- SPRD
 Delta: O_D= -0.4870870E-03 O_OD= -0.5150051E-02 O_TOT= -0.5637138E-02 <-- DLTA
 ------------------------------------------------------------------------------
 Cycle:     10
  WF centre and spread    1  (  0.303537,  0.269732,  3.667150 )     2.70126981
  WF centre and spread    2  (  0.303537,  0.269732,  3.667150 )     2.70126981
  WF centre and spread    3  (  0.367044, -0.408205,  2.992866 )     2.46473189
  WF centre and spread    4  (  0.367044, -0.408205,  2.992866 )     2.46473189
  WF centre and spread    5  ( -0.442312,  0.402271,  3.001141 )     2.40963457
  WF centre and spread    6  ( -0.442312,  0.402271,  3.001141 )     2.40963462
  WF centre and spread    7  ( -0.229484, -0.263793,  3.671913 )     2.75227948
  WF centre and spread    8  ( -0.229484, -0.263793,  3.671913 )     2.75227953
  WF centre and spread    9  (  0.344368,  2.847942,  5.210792 )     2.04982172
  WF centre and spread   10  (  0.344368,  2.847942,  5.210792 )     2.04982173
  WF centre and spread   11  (  0.317202,  2.181659,  4.544626 )     2.26022973
  WF centre and spread   12  (  0.317202,  2.181659,  4.544626 )     2.26022971
  WF centre and spread   13  ( -0.235204,  2.733896,  4.539400 )     2.31778636
  WF centre and spread   14  ( -0.235204,  2.733896,  4.539400 )     2.31778631
  WF centre and spread   15  ( -0.426468,  2.076418,  5.201970 )     1.99173862
  WF centre and spread   16  ( -0.426468,  2.076418,  5.201970 )     1.99173865
  WF centre and spread   17  ( -0.000010, -0.000005, -0.002935 )     1.03646564
  WF centre and spread   18  ( -0.000010, -0.000005, -0.002935 )     1.03646549
  WF centre and spread   19  (  1.421281,  2.461644, -0.001573 )     1.01444485
  WF centre and spread   20  (  1.421281,  2.461644, -0.001573 )     1.01444500
  WF centre and spread   21  (  2.130468,  1.230030,  0.001686 )     1.00777524
  WF centre and spread   22  (  2.130468,  1.230030,  0.001686 )     1.00777510
  WF centre and spread   23  ( -0.000056,  2.460040,  0.002248 )     1.01261325
  WF centre and spread   24  ( -0.000056,  2.460040,  0.002248 )     1.01261330
  WF centre and spread   25  (  1.418348,  0.000074, -0.001597 )     1.01474850
  WF centre and spread   26  (  1.418348,  0.000074, -0.001597 )     1.01474843
  WF centre and spread   27  ( -0.709235,  1.228306, -0.001630 )     1.01523059
  WF centre and spread   28  ( -0.709235,  1.228306, -0.001630 )     1.01523039
  WF centre and spread   29  (  0.709865,  0.000004, -0.000507 )     0.60896567
  WF centre and spread   30  (  0.709865,  0.000004, -0.000507 )     0.60896565
  WF centre and spread   31  (  2.840390,  1.229974, -0.000182 )     0.60915889
  WF centre and spread   32  (  2.840390,  1.229974, -0.000182 )     0.60915889
  WF centre and spread   33  (  0.709973,  2.460019, -0.000189 )     0.60910627
  WF centre and spread   34  (  0.709973,  2.460019, -0.000189 )     0.60910627
  WF centre and spread   35  ( -0.354971,  1.845137, -0.000196 )     0.60911305
  WF centre and spread   36  ( -0.354971,  1.845137, -0.000196 )     0.60911305
  WF centre and spread   37  (  1.775494,  3.075238, -0.000507 )     0.60896779
  WF centre and spread   38  (  1.775494,  3.075238, -0.000507 )     0.60896779
  WF centre and spread   39  (  1.775463,  1.844863, -0.000175 )     0.60915611
  WF centre and spread   40  (  1.775463,  1.844863, -0.000175 )     0.60915612
  WF centre and spread   41  ( -0.355003,  3.074845, -0.000197 )     0.60910988
  WF centre and spread   42  ( -0.355003,  3.074845, -0.000197 )     0.60910986
  WF centre and spread   43  (  1.775416,  0.615164, -0.000174 )     0.60915500
  WF centre and spread   44  (  1.775416,  0.615164, -0.000174 )     0.60915497
  WF centre and spread   45  ( -0.354936,  0.614758, -0.000506 )     0.60896389
  WF centre and spread   46  ( -0.354936,  0.614758, -0.000506 )     0.60896385
  Sum of centres and spreads ( 25.562338, 63.960024, 65.646853 )    61.06093323

     10    -0.475E-02     0.1054352491       61.0609497431       4.29  <-- CONV
        O_D=      0.1133921 O_OD=     10.8333773 O_TOT=     61.0609497 <-- SPRD
 Delta: O_D= -0.3843609E-03 O_OD= -0.4370097E-02 O_TOT= -0.4754458E-02 <-- DLTA
 ------------------------------------------------------------------------------
 Cycle:     11
  WF centre and spread    1  (  0.305099,  0.270654,  3.666661 )     2.69542405
  WF centre and spread    2  (  0.305099,  0.270654,  3.666661 )     2.69542404
  WF centre and spread    3  (  0.365780, -0.408566,  2.992188 )     2.46442971
  WF centre and spread    4  (  0.365779, -0.408566,  2.992188 )     2.46442971
  WF centre and spread    5  ( -0.443205,  0.401729,  3.001817 )     2.41010746
  WF centre and spread    6  ( -0.443205,  0.401729,  3.001817 )     2.41010751
  WF centre and spread    7  ( -0.228848, -0.263804,  3.672389 )     2.75197264
  WF centre and spread    8  ( -0.228848, -0.263804,  3.672389 )     2.75197269
  WF centre and spread    9  (  0.342962,  2.848156,  5.211501 )     2.05084398
  WF centre and spread   10  (  0.342962,  2.848156,  5.211501 )     2.05084399
  WF centre and spread   11  (  0.318828,  2.180773,  4.545156 )     2.25801179
  WF centre and spread   12  (  0.318828,  2.180773,  4.545156 )     2.25801178
  WF centre and spread   13  ( -0.234561,  2.734025,  4.538886 )     2.32001818
  WF centre and spread   14  ( -0.234561,  2.734025,  4.538886 )     2.32001813
  WF centre and spread   15  ( -0.427352,  2.076954,  5.201260 )     1.99378859
  WF centre and spread   16  ( -0.427352,  2.076954,  5.201260 )     1.99378862
  WF centre and spread   17  ( -0.000010, -0.000005, -0.003029 )     1.03728626
  WF centre and spread   18  ( -0.000010, -0.000005, -0.003029 )     1.03728610
  WF centre and spread   19  (  1.421299,  2.461674, -0.001581 )     1.01449728
  WF centre and spread   20  (  1.421299,  2.461674, -0.001581 )     1.01449744
  WF centre and spread   21  (  2.130480,  1.230029,  0.001764 )     1.00759094
  WF centre and spread   22  (  2.130480,  1.230029,  0.001764 )     1.00759081
  WF centre and spread   23  ( -0.000064,  2.460041,  0.002329 )     1.01240371
  WF centre and spread   24  ( -0.000064,  2.460040,  0.002330 )     1.01240376
  WF centre and spread   25  (  1.418308,  0.000079, -0.001617 )     1.01490428
  WF centre and spread   26  (  1.418308,  0.000079, -0.001617 )     1.01490421
  WF centre and spread   27  ( -0.709214,  1.228267, -0.001659 )     1.01548659
  WF centre and spread   28  ( -0.709214,  1.228267, -0.001659 )     1.01548640
  WF centre and spread   29  (  0.709867,  0.000004, -0.000498 )     0.60897278
  WF centre and spread   30  (  0.709867,  0.000004, -0.000498 )     0.60897276
  WF centre and spread   31  (  2.840389,  1.229972, -0.000186 )     0.60916287
  WF centre and spread   32  (  2.840389,  1.229972, -0.000186 )     0.60916288
  WF centre and spread   33  (  0.709971,  2.460021, -0.000192 )     0.60911486
  WF centre and spread   34  (  0.709971,  2.460021, -0.000192 )     0.60911486
  WF centre and spread   35  ( -0.354969,  1.845138, -0.000200 )     0.60911903
  WF centre and spread   36  ( -0.354969,  1.845138, -0.000200 )     0.60911903
  WF centre and spread   37  (  1.775493,  3.075235, -0.000497 )     0.60897229
  WF centre and spread   38  (  1.775493,  3.075235, -0.000497 )     0.60897230
  WF centre and spread   39  (  1.775465,  1.844864, -0.000178 )     0.60916298
  WF centre and spread   40  (  1.775465,  1.844864, -0.000178 )     0.60916299
  WF centre and spread   41  ( -0.355005,  3.074843, -0.000201 )     0.60912018
  WF centre and spread   42  ( -0.355005,  3.074843, -0.000201 )     0.60912016
  WF centre and spread   43  (  1.775416,  0.615166, -0.000176 )     0.60915749
  WF centre and spread   44  (  1.775416,  0.615166, -0.000176 )     0.60915746
  WF centre and spread   45  ( -0.354937,  0.614760, -0.000498 )     0.60897192
  WF centre and spread   46  ( -0.354937,  0.614760, -0.000498 )     0.60897188
  Sum of centres and spreads ( 25.562383, 63.960016, 65.646881 )    61.05703937

     11    -0.389E-02     0.0972174578       61.0570558834       4.32  <-- CONV
        O_D=      0.1132919 O_OD=     10.8295837 O_TOT=     61.0570559 <-- SPRD
 Delta: O_D= -0.1002032E-03 O_OD= -0.3793656E-02 O_TOT= -0.3893860E-02 <-- DLTA
 ------------------------------------------------------------------------------
 Cycle:     12
  WF centre and spread    1  (  0.307328,  0.271959,  3.665981 )     2.68794103
  WF centre and spread    2  (  0.307328,  0.271959,  3.665981 )     2.68794102
  WF centre and spread    3  (  0.363973, -0.409074,  2.991207 )     2.46402057
  WF centre and spread    4  (  0.363973, -0.409074,  2.991207 )     2.46402058
  WF centre and spread    5  ( -0.444457,  0.400951,  3.002751 )     2.41017336
  WF centre and spread    6  ( -0.444457,  0.400951,  3.002751 )     2.41017342
[...]
  WF centre and spread   29  (  0.709860,  0.000004,  0.004036 )     0.60905390
  WF centre and spread   30  (  0.709860,  0.000004,  0.004036 )     0.60905387
  WF centre and spread   31  (  2.840385,  1.229956,  0.000347 )     0.60912811
  WF centre and spread   32  (  2.840385,  1.229956,  0.000348 )     0.60912812
  WF centre and spread   33  (  0.709968,  2.460035,  0.000084 )     0.60907852
  WF centre and spread   34  (  0.709968,  2.460035,  0.000084 )     0.60907852
  WF centre and spread   35  ( -0.354953,  1.845133,  0.000084 )     0.60907877
  WF centre and spread   36  ( -0.354953,  1.845133,  0.000083 )     0.60907877
  WF centre and spread   37  (  1.775496,  3.075241,  0.004040 )     0.60905299
  WF centre and spread   38  (  1.775496,  3.075241,  0.004040 )     0.60905299
  WF centre and spread   39  (  1.775480,  1.844868,  0.000348 )     0.60912837
  WF centre and spread   40  (  1.775480,  1.844868,  0.000348 )     0.60912837
  WF centre and spread   41  ( -0.355014,  3.074833,  0.000081 )     0.60907828
  WF centre and spread   42  ( -0.355014,  3.074833,  0.000080 )     0.60907826
  WF centre and spread   43  (  1.775403,  0.615177,  0.000345 )     0.60912859
  WF centre and spread   44  (  1.775403,  0.615177,  0.000344 )     0.60912856
  WF centre and spread   45  ( -0.354934,  0.614755,  0.004040 )     0.60905393
  WF centre and spread   46  ( -0.354934,  0.614755,  0.004040 )     0.60905389
  Sum of centres and spreads ( 25.565075, 63.960003, 65.648880 )    59.83911128

    772    -0.491E-08     0.0001665542       59.8391278849      26.59  <-- CONV
        O_D=      0.1183654 O_OD=      9.6065822 O_TOT=     59.8391279 <-- SPRD
 Delta: O_D= -0.2057854E-07 O_OD=  0.1566576E-07 O_TOT= -0.4912778E-08 <-- DLTA
 ------------------------------------------------------------------------------
 Cycle:    773
  WF centre and spread    1  (  0.556373,  0.324083,  3.135254 )     2.45511766
  WF centre and spread    2  (  0.556373,  0.324083,  3.135254 )     2.45511763
  WF centre and spread    3  (  0.002494, -0.643832,  3.135084 )     2.45515240
  WF centre and spread    4  (  0.002494, -0.643832,  3.135084 )     2.45515248
  WF centre and spread    5  ( -0.558803,  0.319809,  3.135123 )     2.45514771
  WF centre and spread    6  ( -0.558803,  0.319809,  3.135123 )     2.45514773
  WF centre and spread    7  ( -0.000064, -0.000059,  3.937302 )     2.61856088
  WF centre and spread    8  ( -0.000064, -0.000059,  3.937302 )     2.61856091
  WF centre and spread    9  ( -0.000376,  3.086046,  5.070991 )     2.05136608
  WF centre and spread   10  ( -0.000376,  3.086046,  5.070990 )     2.05136603
  WF centre and spread   11  (  0.542549,  2.147235,  5.070336 )     2.05135084
  WF centre and spread   12  (  0.542549,  2.147235,  5.070336 )     2.05135079
  WF centre and spread   13  ( -0.000225,  2.460267,  4.276908 )     2.19529355
  WF centre and spread   14  ( -0.000225,  2.460267,  4.276908 )     2.19529356
  WF centre and spread   15  ( -0.541947,  2.146451,  5.070764 )     2.05136102
  WF centre and spread   16  ( -0.541947,  2.146451,  5.070764 )     2.05136106
  WF centre and spread   17  ( -0.000000, -0.000000, -0.011459 )     1.03698037
  WF centre and spread   18  (  0.000000, -0.000000, -0.011459 )     1.03698022
  WF centre and spread   19  (  1.421343,  2.461708, -0.005358 )     1.01536924
  WF centre and spread   20  (  1.421343,  2.461708, -0.005358 )     1.01536939
  WF centre and spread   21  (  2.130423,  1.230000,  0.002750 )     1.00853159
  WF centre and spread   22  (  2.130423,  1.230000,  0.002750 )     1.00853146
  WF centre and spread   23  ( -0.000000,  2.460000,  0.004045 )     1.01280350
  WF centre and spread   24  ( -0.000000,  2.460000,  0.004046 )     1.01280353
  WF centre and spread   25  (  1.418273,  0.000066, -0.005350 )     1.01536969
  WF centre and spread   26  (  1.418273,  0.000066, -0.005349 )     1.01536962
  WF centre and spread   27  ( -0.709193,  1.228227, -0.005357 )     1.01536986
  WF centre and spread   28  ( -0.709193,  1.228227, -0.005357 )     1.01536966
  WF centre and spread   29  (  0.709860,  0.000004,  0.004036 )     0.60905390
  WF centre and spread   30  (  0.709860,  0.000004,  0.004036 )     0.60905387
  WF centre and spread   31  (  2.840385,  1.229956,  0.000347 )     0.60912811
  WF centre and spread   32  (  2.840385,  1.229956,  0.000348 )     0.60912812
  WF centre and spread   33  (  0.709968,  2.460035,  0.000084 )     0.60907852
  WF centre and spread   34  (  0.709968,  2.460035,  0.000084 )     0.60907852
  WF centre and spread   35  ( -0.354953,  1.845133,  0.000084 )     0.60907877
  WF centre and spread   36  ( -0.354953,  1.845133,  0.000083 )     0.60907877
  WF centre and spread   37  (  1.775496,  3.075241,  0.004040 )     0.60905299
  WF centre and spread   38  (  1.775496,  3.075241,  0.004040 )     0.60905299
  WF centre and spread   39  (  1.775480,  1.844868,  0.000348 )     0.60912837
  WF centre and spread   40  (  1.775480,  1.844868,  0.000348 )     0.60912837
  WF centre and spread   41  ( -0.355014,  3.074833,  0.000081 )     0.60907828
  WF centre and spread   42  ( -0.355014,  3.074833,  0.000080 )     0.60907826
  WF centre and spread   43  (  1.775403,  0.615177,  0.000345 )     0.60912859
  WF centre and spread   44  (  1.775403,  0.615177,  0.000344 )     0.60912856
  WF centre and spread   45  ( -0.354934,  0.614755,  0.004040 )     0.60905393
  WF centre and spread   46  ( -0.354934,  0.614755,  0.004040 )     0.60905389
  Sum of centres and spreads ( 25.565075, 63.960003, 65.648880 )    59.83911128

    773    -0.168E-10     0.0000874366       59.8391278849      26.61  <-- CONV
        O_D=      0.1183654 O_OD=      9.6065822 O_TOT=     59.8391279 <-- SPRD
 Delta: O_D= -0.1611560E-09 O_OD=  0.1443166E-09 O_TOT= -0.1683276E-10 <-- DLTA
 ------------------------------------------------------------------------------
 Cycle:    774
  WF centre and spread    1  (  0.556373,  0.324083,  3.135254 )     2.45511766
  WF centre and spread    2  (  0.556373,  0.324083,  3.135254 )     2.45511763
  WF centre and spread    3  (  0.002494, -0.643832,  3.135084 )     2.45515240
  WF centre and spread    4  (  0.002494, -0.643832,  3.135084 )     2.45515248
  WF centre and spread    5  ( -0.558803,  0.319809,  3.135123 )     2.45514771
  WF centre and spread    6  ( -0.558803,  0.319809,  3.135123 )     2.45514773
  WF centre and spread    7  ( -0.000064, -0.000059,  3.937302 )     2.61856088
  WF centre and spread    8  ( -0.000064, -0.000059,  3.937302 )     2.61856091
  WF centre and spread    9  ( -0.000376,  3.086046,  5.070991 )     2.05136608
  WF centre and spread   10  ( -0.000376,  3.086046,  5.070990 )     2.05136603
  WF centre and spread   11  (  0.542549,  2.147235,  5.070336 )     2.05135084
  WF centre and spread   12  (  0.542549,  2.147235,  5.070336 )     2.05135079
  WF centre and spread   13  ( -0.000225,  2.460267,  4.276908 )     2.19529355
  WF centre and spread   14  ( -0.000225,  2.460267,  4.276908 )     2.19529356
  WF centre and spread   15  ( -0.541947,  2.146451,  5.070764 )     2.05136102
  WF centre and spread   16  ( -0.541947,  2.146451,  5.070764 )     2.05136106
  WF centre and spread   17  ( -0.000000, -0.000000, -0.011459 )     1.03698037
  WF centre and spread   18  (  0.000000, -0.000000, -0.011459 )     1.03698022
  WF centre and spread   19  (  1.421343,  2.461708, -0.005358 )     1.01536924
  WF centre and spread   20  (  1.421343,  2.461708, -0.005358 )     1.01536939
  WF centre and spread   21  (  2.130423,  1.230000,  0.002750 )     1.00853159
  WF centre and spread   22  (  2.130423,  1.230000,  0.002750 )     1.00853146
  WF centre and spread   23  ( -0.000000,  2.460000,  0.004045 )     1.01280350
  WF centre and spread   24  ( -0.000000,  2.460000,  0.004046 )     1.01280353
  WF centre and spread   25  (  1.418273,  0.000066, -0.005350 )     1.01536969
  WF centre and spread   26  (  1.418273,  0.000066, -0.005349 )     1.01536962
  WF centre and spread   27  ( -0.709193,  1.228227, -0.005357 )     1.01536986
  WF centre and spread   28  ( -0.709193,  1.228227, -0.005357 )     1.01536966
  WF centre and spread   29  (  0.709860,  0.000004,  0.004036 )     0.60905390
  WF centre and spread   30  (  0.709860,  0.000004,  0.004036 )     0.60905387
  WF centre and spread   31  (  2.840385,  1.229956,  0.000347 )     0.60912811
  WF centre and spread   32  (  2.840385,  1.229956,  0.000348 )     0.60912812
  WF centre and spread   33  (  0.709968,  2.460035,  0.000084 )     0.60907852
  WF centre and spread   34  (  0.709968,  2.460035,  0.000084 )     0.60907852
  WF centre and spread   35  ( -0.354953,  1.845133,  0.000084 )     0.60907877
  WF centre and spread   36  ( -0.354953,  1.845133,  0.000083 )     0.60907877
  WF centre and spread   37  (  1.775496,  3.075241,  0.004040 )     0.60905299
  WF centre and spread   38  (  1.775496,  3.075241,  0.004040 )     0.60905299
  WF centre and spread   39  (  1.775480,  1.844868,  0.000348 )     0.60912837
  WF centre and spread   40  (  1.775480,  1.844868,  0.000348 )     0.60912837
  WF centre and spread   41  ( -0.355014,  3.074833,  0.000081 )     0.60907828
  WF centre and spread   42  ( -0.355014,  3.074833,  0.000080 )     0.60907826
  WF centre and spread   43  (  1.775403,  0.615177,  0.000345 )     0.60912859
  WF centre and spread   44  (  1.775403,  0.615177,  0.000344 )     0.60912856
  WF centre and spread   45  ( -0.354934,  0.614755,  0.004040 )     0.60905393
  WF centre and spread   46  ( -0.354934,  0.614755,  0.004040 )     0.60905389
  Sum of centres and spreads ( 25.565075, 63.960003, 65.648880 )    59.83911128

    774    -0.308E-10     0.0000873719       59.8391278849      26.62  <-- CONV
        O_D=      0.1183654 O_OD=      9.6065822 O_TOT=     59.8391279 <-- SPRD
 Delta: O_D= -0.2868210E-09 O_OD=  0.2560565E-09 O_TOT= -0.3077361E-10 <-- DLTA
 ------------------------------------------------------------------------------
 Cycle:    775
  WF centre and spread    1  (  0.556373,  0.324082,  3.135253 )     2.45511789
  WF centre and spread    2  (  0.556373,  0.324083,  3.135253 )     2.45511785
  WF centre and spread    3  (  0.002494, -0.643832,  3.135085 )     2.45515249
  WF centre and spread    4  (  0.002494, -0.643832,  3.135085 )     2.45515257
  WF centre and spread    5  ( -0.558803,  0.319809,  3.135124 )     2.45514779
  WF centre and spread    6  ( -0.558803,  0.319809,  3.135124 )     2.45514780
  WF centre and spread    7  ( -0.000064, -0.000059,  3.937302 )     2.61856048
  WF centre and spread    8  ( -0.000064, -0.000059,  3.937302 )     2.61856050
  WF centre and spread    9  ( -0.000376,  3.086046,  5.070989 )     2.05136615
  WF centre and spread   10  ( -0.000376,  3.086046,  5.070989 )     2.05136610
  WF centre and spread   11  (  0.542549,  2.147236,  5.070338 )     2.05135092
  WF centre and spread   12  (  0.542549,  2.147236,  5.070338 )     2.05135086
  WF centre and spread   13  ( -0.000224,  2.460266,  4.276908 )     2.19529335
  WF centre and spread   14  ( -0.000224,  2.460266,  4.276908 )     2.19529336
  WF centre and spread   15  ( -0.541947,  2.146451,  5.070764 )     2.05136106
  WF centre and spread   16  ( -0.541947,  2.146451,  5.070764 )     2.05136110
  WF centre and spread   17  ( -0.000000, -0.000000, -0.011460 )     1.03698037
  WF centre and spread   18  (  0.000000, -0.000000, -0.011460 )     1.03698022
  WF centre and spread   19  (  1.421343,  2.461708, -0.005359 )     1.01536924
  WF centre and spread   20  (  1.421343,  2.461708, -0.005359 )     1.01536939
  WF centre and spread   21  (  2.130423,  1.230000,  0.002750 )     1.00853159
  WF centre and spread   22  (  2.130423,  1.230000,  0.002750 )     1.00853146
  WF centre and spread   23  ( -0.000000,  2.460000,  0.004045 )     1.01280350
  WF centre and spread   24  ( -0.000000,  2.460000,  0.004046 )     1.01280353
  WF centre and spread   25  (  1.418273,  0.000066, -0.005350 )     1.01536969
  WF centre and spread   26  (  1.418273,  0.000066, -0.005349 )     1.01536963
  WF centre and spread   27  ( -0.709193,  1.228227, -0.005357 )     1.01536986
  WF centre and spread   28  ( -0.709193,  1.228227, -0.005357 )     1.01536966
  WF centre and spread   29  (  0.709860,  0.000004,  0.004036 )     0.60905390
  WF centre and spread   30  (  0.709860,  0.000004,  0.004037 )     0.60905388
  WF centre and spread   31  (  2.840385,  1.229956,  0.000347 )     0.60912812
  WF centre and spread   32  (  2.840385,  1.229956,  0.000348 )     0.60912812
  WF centre and spread   33  (  0.709968,  2.460035,  0.000084 )     0.60907852
  WF centre and spread   34  (  0.709968,  2.460035,  0.000085 )     0.60907852
  WF centre and spread   35  ( -0.354953,  1.845133,  0.000084 )     0.60907877
  WF centre and spread   36  ( -0.354953,  1.845133,  0.000084 )     0.60907877
  WF centre and spread   37  (  1.775496,  3.075241,  0.004041 )     0.60905300
  WF centre and spread   38  (  1.775496,  3.075241,  0.004041 )     0.60905300
  WF centre and spread   39  (  1.775480,  1.844868,  0.000349 )     0.60912837
  WF centre and spread   40  (  1.775480,  1.844868,  0.000348 )     0.60912837
  WF centre and spread   41  ( -0.355014,  3.074833,  0.000081 )     0.60907828
  WF centre and spread   42  ( -0.355014,  3.074833,  0.000080 )     0.60907826
  WF centre and spread   43  (  1.775403,  0.615177,  0.000345 )     0.60912859
  WF centre and spread   44  (  1.775403,  0.615177,  0.000344 )     0.60912856
  WF centre and spread   45  ( -0.354934,  0.614755,  0.004040 )     0.60905394
  WF centre and spread   46  ( -0.354934,  0.614755,  0.004040 )     0.60905390
  Sum of centres and spreads ( 25.565075, 63.960003, 65.648880 )    59.83911127

    775    -0.659E-08     0.0000872051       59.8391278783      26.65  <-- CONV
        O_D=      0.1183653 O_OD=      9.6065822 O_TOT=     59.8391279 <-- SPRD
 Delta: O_D= -0.8873671E-07 O_OD=  0.8214291E-07 O_TOT= -0.6593801E-08 <-- DLTA
 ------------------------------------------------------------------------------

             <<<     Delta < 1.000E-08  over  5 iterations     >>>
             <<< Wannierisation convergence criteria satisfied >>>

 Final State
  WF centre and spread    1  (  0.556373,  0.324082,  3.135253 )     2.45511789
  WF centre and spread    2  (  0.556373,  0.324083,  3.135253 )     2.45511785
  WF centre and spread    3  (  0.002494, -0.643832,  3.135085 )     2.45515249
  WF centre and spread    4  (  0.002494, -0.643832,  3.135085 )     2.45515257
  WF centre and spread    5  ( -0.558803,  0.319809,  3.135124 )     2.45514779
  WF centre and spread    6  ( -0.558803,  0.319809,  3.135124 )     2.45514780
  WF centre and spread    7  ( -0.000064, -0.000059,  3.937302 )     2.61856048
  WF centre and spread    8  ( -0.000064, -0.000059,  3.937302 )     2.61856050
  WF centre and spread    9  ( -0.000376,  3.086046,  5.070989 )     2.05136615
  WF centre and spread   10  ( -0.000376,  3.086046,  5.070989 )     2.05136610
  WF centre and spread   11  (  0.542549,  2.147236,  5.070338 )     2.05135092
  WF centre and spread   12  (  0.542549,  2.147236,  5.070338 )     2.05135086
  WF centre and spread   13  ( -0.000224,  2.460266,  4.276908 )     2.19529335
  WF centre and spread   14  ( -0.000224,  2.460266,  4.276908 )     2.19529336
  WF centre and spread   15  ( -0.541947,  2.146451,  5.070764 )     2.05136106
  WF centre and spread   16  ( -0.541947,  2.146451,  5.070764 )     2.05136110
  WF centre and spread   17  ( -0.000000, -0.000000, -0.011460 )     1.03698037
  WF centre and spread   18  (  0.000000, -0.000000, -0.011460 )     1.03698022
  WF centre and spread   19  (  1.421343,  2.461708, -0.005359 )     1.01536924
  WF centre and spread   20  (  1.421343,  2.461708, -0.005359 )     1.01536939
  WF centre and spread   21  (  2.130423,  1.230000,  0.002750 )     1.00853159
  WF centre and spread   22  (  2.130423,  1.230000,  0.002750 )     1.00853146
  WF centre and spread   23  ( -0.000000,  2.460000,  0.004045 )     1.01280350
  WF centre and spread   24  ( -0.000000,  2.460000,  0.004046 )     1.01280353
  WF centre and spread   25  (  1.418273,  0.000066, -0.005350 )     1.01536969
  WF centre and spread   26  (  1.418273,  0.000066, -0.005349 )     1.01536963
  WF centre and spread   27  ( -0.709193,  1.228227, -0.005357 )     1.01536986
  WF centre and spread   28  ( -0.709193,  1.228227, -0.005357 )     1.01536966
  WF centre and spread   29  (  0.709860,  0.000004,  0.004036 )     0.60905390
  WF centre and spread   30  (  0.709860,  0.000004,  0.004037 )     0.60905388
  WF centre and spread   31  (  2.840385,  1.229956,  0.000347 )     0.60912812
  WF centre and spread   32  (  2.840385,  1.229956,  0.000348 )     0.60912812
  WF centre and spread   33  (  0.709968,  2.460035,  0.000084 )     0.60907852
  WF centre and spread   34  (  0.709968,  2.460035,  0.000085 )     0.60907852
  WF centre and spread   35  ( -0.354953,  1.845133,  0.000084 )     0.60907877
  WF centre and spread   36  ( -0.354953,  1.845133,  0.000084 )     0.60907877
  WF centre and spread   37  (  1.775496,  3.075241,  0.004041 )     0.60905300
  WF centre and spread   38  (  1.775496,  3.075241,  0.004041 )     0.60905300
  WF centre and spread   39  (  1.775480,  1.844868,  0.000349 )     0.60912837
  WF centre and spread   40  (  1.775480,  1.844868,  0.000348 )     0.60912837
  WF centre and spread   41  ( -0.355014,  3.074833,  0.000081 )     0.60907828
  WF centre and spread   42  ( -0.355014,  3.074833,  0.000080 )     0.60907826
  WF centre and spread   43  (  1.775403,  0.615177,  0.000345 )     0.60912859
  WF centre and spread   44  (  1.775403,  0.615177,  0.000344 )     0.60912856
  WF centre and spread   45  ( -0.354934,  0.614755,  0.004040 )     0.60905394
  WF centre and spread   46  ( -0.354934,  0.614755,  0.004040 )     0.60905390
  Sum of centres and spreads ( 25.565075, 63.960003, 65.648880 )    59.83911127

         Spreads (Ang^2)       Omega I      =    50.114180316
        ================       Omega D      =     0.118365326
                               Omega OD     =     9.606582237
    Final Spread (Ang^2)       Omega Total  =    59.839127878
 ------------------------------------------------------------------------------

 Wannier centres written to file graphene_centres.xyz
 Time for wannierise           22.455 (sec)

 Writing checkpoint file graphene.chk... done

 *---------------------------------------------------------------------------*
 |                               PLOTTING                                    |
 *---------------------------------------------------------------------------*


 Calculating interpolated band-structure

 Time to calculate interpolated band structure      28.140 (sec)

 Time for plotting             50.998 (sec)
 Total Execution Time          84.871 (sec)

 *===========================================================================*
 |                             TIMING INFORMATION                            |
 *===========================================================================*
 |    Tag                                                Ncalls      Time (s)|
 |---------------------------------------------------------------------------|
 |kmesh: get                                        :         1         0.054|
 |overlap: allocate                                 :         1         0.004|
 |overlap: read                                     :         1         6.780|
 |dis: main                                         :         1         4.535|
 |wann: main                                        :         1        22.455|
 |plot: main                                        :         1        50.998|
 *---------------------------------------------------------------------------*

 All done: wannier90 exiting
